<?xml version="1.0"?>
<VTKFile type="UnstructuredGrid"  version="0.1"  >
<UnstructuredGrid>
<Piece  NumberOfPoints="1297" NumberOfCells="2496">
<Points>
<DataArray  type="Float64"  NumberOfComponents="3"  format="ascii">0 0 0  0 1 0  1 1 0  1 0 0  1.1 -0.1 0  -0.1 -0.1 0  1.1 1.1 0  -0.1 1.1 0  0.2561038236158367 0.7025382714883831 0  0.2562431425743488 0.297660552409689 0  0.7438125636388822 0.2976463579596426 0  0.7437771539604091 0.7025088922030298 0  0.4999976148471692 0.5000746644684717 0  0 0.9499999999997918 0  0 0.8999999999995836 0  0 0.8499999999996529 0  0 0.7999999999999998 0  0 0.7500000000003466 0  0 0.7000000000006934 0  0 0.6500000000010401 0  0 0.6000000000013869 0  0 0.5500000000017335 0  0 0.5000000000020587 0  0 0.4500000000018723 0  0 0.4000000000016644 0  0 0.3500000000014564 0  0 0.3000000000012483 0  0 0.2500000000010403 0  0 0.2000000000008322 0  0 0.1500000000006241 0  0 0.100000000000416 0  0 0.05000000000020799 0  0.04999999999989965 0 0  0.09999999999981467 0 0  0.1499999999997036 0 0  0.1999999999995579 0 0  0.2499999999994121 0 0  0.2999999999992664 0 0  0.3499999999991206 0 0  0.3999999999989749 0 0  0.4499999999988292 0 0  0.4999999999986943 0 0  0.5499999999988151 0 0  0.5999999999989468 0 0  0.6499999999990784 0 0  0.69999999999921 0 0  0.7499999999993417 0 0  0.7999999999994734 0 0  0.8499999999996051 0 0  0.8999999999997368 0 0  0.9499999999998684 0 0  1 0.04999999999989965 0  1 0.09999999999981467 0  1 0.1499999999997036 0  1 0.1999999999995579 0  1 0.2499999999994121 0  1 0.2999999999992664 0  1 0.3499999999991206 0  1 0.3999999999989749 0  1 0.4499999999988292 0  1 0.4999999999986943 0  1 0.5499999999988151 0  1 0.5999999999989468 0  1 0.6499999999990784 0  1 0.69999999999921 0  1 0.7499999999993417 0  1 0.7999999999994734 0  1 0.8499999999996051 0  1 0.8999999999997368 0  1 0.9499999999998684 0  0.9499999999997918 1 0  0.8999999999995836 1 0  0.8499999999996529 1 0  0.7999999999999998 1 0  0.7500000000003466 1 0  0.7000000000006934 1 0  0.6500000000010401 1 0  0.6000000000013869 1 0  0.5500000000017335 1 0  0.5000000000020587 1 0  0.4500000000018723 1 0  0.4000000000016644 1 0  0.3500000000014564 1 0  0.3000000000012483 1 0  0.2500000000010403 1 0  0.2000000000008322 1 0  0.1500000000006241 1 0  0.100000000000416 1 0  0.05000000000020799 1 0  -0.1 1.05000000000004 0  -0.1 1.000000000000079 0  -0.1 0.9500000000001624 0  -0.1 0.9000000000003032 0  -0.1 0.850000000000444 0  -0.1 0.8000000000005848 0  -0.1 0.7500000000007256 0  -0.1 0.7000000000008665 0  -0.1 0.6500000000010508 0  -0.1 0.6000000000012352 0  -0.1 0.5500000000014196 0  -0.1 0.500000000001539 0  -0.1 0.4500000000014195 0  -0.1 0.4000000000013 0  -0.1 0.3500000000011588 0  -0.1 0.3000000000010178 0  -0.1 0.2500000000008986 0  -0.1 0.2000000000007579 0  -0.1 0.1500000000006174 0  -0.1 0.1000000000005272 0  -0.1 0.05000000000040083 0  -0.1 2.671196597248127e-13 0  -0.1 -0.0499999999998666 0  -0.0500000000000906 -0.1 0  -1.730560139634463e-13 -0.1 0  0.04999999999975802 -0.1 0  0.09999999999961506 -0.1 0  0.1499999999994613 -0.1 0  0.199999999999302 -0.1 0  0.2499999999991446 -0.1 0  0.2999999999990088 -0.1 0  0.3499999999988296 -0.1 0  0.3999999999986936 -0.1 0  0.4499999999985143 -0.1 0  0.4999999999984002 -0.1 0  0.5499999999985247 -0.1 0  0.5999999999986493 -0.1 0  0.6499999999987955 -0.1 0  0.6999999999989417 -0.1 0  0.7499999999990659 -0.1 0  0.7999999999992116 -0.1 0  0.8499999999993573 -0.1 0  0.8999999999994526 -0.1 0  0.949999999999584 -0.1 0  0.9999999999997226 -0.1 0  1.049999999999861 -0.1 0  1.1 -0.0500000000000906 0  1.1 -1.730560139634463e-13 0  1.1 0.04999999999975802 0  1.1 0.09999999999961506 0  1.1 0.1499999999994613 0  1.1 0.199999999999302 0  1.1 0.2499999999991446 0  1.1 0.2999999999990088 0  1.1 0.3499999999988296 0  1.1 0.3999999999986936 0  1.1 0.4499999999985143 0  1.1 0.4999999999984002 0  1.1 0.5499999999985247 0  1.1 0.5999999999986493 0  1.1 0.6499999999987955 0  1.1 0.6999999999989417 0  1.1 0.7499999999990659 0  1.1 0.7999999999992116 0  1.1 0.8499999999993573 0  1.1 0.8999999999994526 0  1.1 0.949999999999584 0  1.1 0.9999999999997226 0  1.1 1.049999999999861 0  1.05000000000004 1.1 0  1.000000000000079 1.1 0  0.9500000000001624 1.1 0  0.9000000000003032 1.1 0  0.850000000000444 1.1 0  0.8000000000005848 1.1 0  0.7500000000007256 1.1 0  0.7000000000008665 1.1 0  0.6500000000010508 1.1 0  0.6000000000012352 1.1 0  0.5500000000014196 1.1 0  0.500000000001539 1.1 0  0.4500000000014195 1.1 0  0.4000000000013 1.1 0  0.3500000000011588 1.1 0  0.3000000000010178 1.1 0  0.2500000000008986 1.1 0  0.2000000000007579 1.1 0  0.1500000000006174 1.1 0  0.1000000000005272 1.1 0  0.05000000000040083 1.1 0  2.671196597248127e-13 1.1 0  -0.0499999999998666 1.1 0  0.2543184044923082 0.6788317952152787 0  0.253564756545966 0.6537814952007666 0  0.2530752028032252 0.6283179798807346 0  0.2528237599753425 0.6026192960181898 0  0.2524114498662893 0.576868680368027 0  0.2519504188953755 0.551185487874127 0  0.2516775279351488 0.5256112910592342 0  0.2515622792597453 0.500127637971589 0  0.2517484948783245 0.4746101016034487 0  0.2521293710273551 0.4489905229614732 0  0.2525831400214543 0.4232653462573303 0  0.2530018772150791 0.3975065600676973 0  0.2533936123194774 0.3718443485336335 0  0.2538417099538621 0.346394540881648 0  0.2545280951603901 0.3213509182329531 0  0.2797573031512152 0.29456664163077 0  0.3044960303579269 0.2920811787285572 0  0.3296187601382318 0.2893580075968618 0  0.3548253995156687 0.2860063301982438 0  0.3797974731058047 0.2819740048388585 0  0.4042623525380677 0.2774077230186002 0  0.4283337543955343 0.2729342242997777 0  0.4520703393700919 0.269096302221163 0  0.4759147630798298 0.2659517893039283 0  0.4999840715589493 0.2646735735123282 0  0.5240821996988457 0.265537616881169 0  0.5480725954637727 0.2683548047996789 0  0.5716318221846689 0.2729811882559805 0  0.5957419375767496 0.277149170236746 0  0.6201047460166085 0.2819368004983176 0  0.6450558548715422 0.2860246006288422 0  0.6703144669991282 0.2893492130350406 0  0.6954744567581116 0.2920700604698264 0  0.7202511860263084 0.2945682363296349 0  0.7455161524316065 0.3213882948888977 0  0.7462507913448236 0.3464165390938317 0  0.7467329361668504 0.3718836744916808 0  0.7471879680493516 0.3975807413187747 0  0.7477205711171635 0.423329738888458 0  0.748271731866828 0.4490092325836929 0  0.7486898615539798 0.4745694231350248 0  0.7488734863446086 0.5000689079267558 0  0.7487865419028327 0.5255854334445824 0  0.7483319965063692 0.551153451527046 0  0.7477335073429705 0.576834507189813 0  0.7471760069585716 0.6025847192609954 0  0.7467177992428522 0.6282661810437389 0  0.7462291193327463 0.6537306714680264 0  0.7454880344315818 0.6787658616320097 0  0.7202065588811721 0.7056132786206932 0  0.6954151498925238 0.7081359832440025 0  0.6702334518675305 0.7108879311230785 0  0.6449764317461898 0.7142286710447445 0  0.6200758356689364 0.7183606669215763 0  0.5957665018464083 0.7231953978722035 0  0.5717050259192256 0.7274338321170439 0  0.5481328253202251 0.7321540120046531 0  0.5241583401275604 0.7351945431137108 0  0.4999800157084931 0.7362311653805903 0  0.475829954558142 0.735167131152705 0  0.4519009201772631 0.7322744484485477 0  0.4280454875554089 0.7284087800389368 0  0.4041857608594507 0.7233576402714332 0  0.3798880721279937 0.7184317204295917 0  0.3548666943562717 0.7143256703045711 0  0.3295970537099151 0.7109423207058746 0  0.304434630903671 0.7081776341768992 0  0.2796553466213783 0.7056575386807513 0  0.3669521342656517 0.3082000677976957 0  0.2741624954777354 0.4357512823856027 0  0.3669715238397797 0.6921924112340406 0  0.2740485151864041 0.5644302652521473 0  0.727150127627042 0.589621392457266 0  0.6083590084374771 0.6964745848673622 0  0.6319231800384847 0.3075902543220265 0  0.7276219310133613 0.4349895893021622 0  0.7273601430494404 0.5122456075309013 0  0.5594874401925671 0.2963200368345298 0  0.4407946281930535 0.2988823871325642 0  0.4392258503545595 0.7023410978354124 0  0.5362784777078931 0.7054065131919951 0  0.2735669428296136 0.4872664440731859 0  0.2732185749489677 0.3839739020640187 0  0.4879751936902871 0.297775473004608 0  0.2790031057520122 0.6142044730457269 0  0.7212887133739571 0.3818490282866723 0  0.487936303582992 0.7068768776752014 0  0.6580205549922145 0.6896409085000788 0  0.3163896259402245 0.3154554565177764 0  0.6839030275030802 0.3168736953011105 0  0.3170918688604384 0.6870745916383802 0  0.7239703964212519 0.6434140116926478 0  0.2753347509476155 0.3330743235616299 0  0.2779192412811921 0.6655065656529109 0  0.7079023578764845 0.6852280637304903 0  0.7255867317259663 0.3324103982631984 0  0.3420316962404026 0.6893817190347498 0  0.3546456667520304 0.6672601321561585 0  0.3789221854645161 0.6689397565661862 0  0.3662287453856187 0.6436161790791368 0  0.3911307719529245 0.644041072101852 0  0.3777470506696929 0.6165129065449289 0  0.4074847839456627 0.6156571515838806 0  0.3909874574758248 0.5849335851063665 0  0.3484279092862536 0.6159304850839276 0  0.427123353857543 0.5839150810396253 0  0.4058380328582084 0.548927017489985 0  0.3640666962721914 0.5551720237893023 0  0.3817215303389737 0.5147538076293834 0  0.3427510350566614 0.5171307944502137 0  0.356216605782975 0.4811588380770527 0  0.3974216901409081 0.4760127045040341 0  0.375463213887975 0.4423337136699036 0  0.4134461696000595 0.4377604792730488 0  0.3920668194108142 0.4060711154242303 0  0.4270690465312703 0.3965017561191087 0  0.3558246850180303 0.4058123282890952 0  0.4008368493591495 0.3729519640849794 0  0.4363787256080093 0.6158458884463938 0  0.4638893072431327 0.5900547175392891 0  0.4829709506261495 0.6143229456683167 0  0.5022810991292107 0.5910204618988378 0  0.5207466066528565 0.6146695273088442 0  0.539775299064949 0.5920670946513872 0  0.5583712880556037 0.6171790722401056 0  0.5773505048473249 0.5945890130479886 0  0.5968043166592989 0.6234974704743474 0  0.6146354023598936 0.5907069397619235 0  0.5977482522960
[...]
<PointData  Scalars="state"> 
<DataArray  type="Float64"  Name="state"  format="ascii">0.0000000000000000e+00  0.0000000000000000e+00  0.0000000000000000e+00  0.0000000000000000e+00  0.0000000000000000e+00  0.0000000000000000e+00  0.0000000000000000e+00  0.0000000000000000e+00  -2.0321875046105668e-02  -2.0372855812715682e-02  -2.0523927038522988e-02  -2.0485642721922871e-02  1.4360237562014395e+00  0.0000000000000000e+00  0.0000000000000000e+00  0.0000000000000000e+00  0.0000000000000000e+00  0.0000000000000000e+00  0.0000000000000000e+00  0.0000000000000000e+00  0.0000000000000000e+00  0.0000000000000000e+00  0.0000000000000000e+00  0.0000000000000000e+00  0.0000000000000000e+00  0.0000000000000000e+00  0.0000000000000000e+00  0.0000000000000000e+00  0.0000000000000000e+00  0.0000000000000000e+00  0.0000000000000000e+00  0.0000000000000000e+00  0.0000000000000000e+00  0.0000000000000000e+00  0.0000000000000000e+00  0.0000000000000000e+00  0.0000000000000000e+00  0.0000000000000000e+00  0.0000000000000000e+00  0.0000000000000000e+00  0.0000000000000000e+00  0.0000000000000000e+00  0.0000000000000000e+00  0.0000000000000000e+00  0.0000000000000000e+00  0.0000000000000000e+00  0.0000000000000000e+00  0.0000000000000000e+00  0.0000000000000000e+00  0.0000000000000000e+00  0.0000000000000000e+00  0.0000000000000000e+00  0.0000000000000000e+00  0.0000000000000000e+00  0.0000000000000000e+00  0.0000000000000000e+00  0.0000000000000000e+00  0.0000000000000000e+00  0.0000000000000000e+00  0.0000000000000000e+00  0.0000000000000000e+00  0.0000000000000000e+00  0.0000000000000000e+00  0.0000000000000000e+00  0.0000000000000000e+00  0.0000000000000000e+00  0.0000000000000000e+00  0.0000000000000000e+00  0.0000000000000000e+00  0.0000000000000000e+00  0.0000000000000000e+00  0.0000000000000000e+00  0.0000000000000000e+00  0.0000000000000000e+00  0.0000000000000000e+00  0.0000000000000000e+00  0.0000000000000000e+00  0.0000000000000000e+00  0.0000000000000000e+00  0.0000000000000000e+00  0.0000000000000000e+00  0.0000000000000000e+00  0.0000000000000000e+00  0.0000000000000000e+00  0.0000000000000000e+00  0.0000000000000000e+00  0.0000000000000000e+00  0.0000000000000000e+00  0.0000000000000000e+00  0.0000000000000000e+00  0.0000000000000000e+00  0.0000000000000000e+00  0.0000000000000000e+00  0.0000000000000000e+00  0.0000000000000000e+00  0.0000000000000000e+00  0.0000000000000000e+00  0.0000000000000000e+00  0.0000000000000000e+00  0.0000000000000000e+00  0.0000000000000000e+00  0.0000000000000000e+00  0.0000000000000000e+00  0.0000000000000000e+00  0.0000000000000000e+00  0.0000000000000000e+00  0.0000000000000000e+00  0.0000000000000000e+00  0.0000000000000000e+00  0.0000000000000000e+00  0.0000000000000000e+00  0.0000000000000000e+00  0.0000000000000000e+00  0.0000000000000000e+00  0.0000000000000000e+00  0.0000000000000000e+00  0.0000000000000000e+00  0.0000000000000000e+00  0.0000000000000000e+00  0.0000000000000000e+00  0.0000000000000000e+00  0.0000000000000000e+00  0.0000000000000000e+00  0.0000000000000000e+00  0.0000000000000000e+00  0.0000000000000000e+00  0.0000000000000000e+00  0.0000000000000000e+00  0.0000000000000000e+00  0.0000000000000000e+00  0.0000000000000000e+00  0.0000000000000000e+00  0.0000000000000000e+00  0.0000000000000000e+00  0.0000000000000000e+00  0.0000000000000000e+00  0.0000000000000000e+00  0.0000000000000000e+00  0.0000000000000000e+00  0.0000000000000000e+00  0.0000000000000000e+00  0.0000000000000000e+00  0.0000000000000000e+00  0.0000000000000000e+00  0.0000000000000000e+00  0.0000000000000000e+00  0.0000000000000000e+00  0.0000000000000000e+00  0.0000000000000000e+00  0.0000000000000000e+00  0.0000000000000000e+00  0.0000000000000000e+00  0.0000000000000000e+00  0.0000000000000000e+00  0.0000000000000000e+00  0.0000000000000000e+00  0.0000000000000000e+00  0.0000000000000000e+00  0.0000000000000000e+00  0.0000000000000000e+00  0.0000000000000000e+00  0.0000000000000000e+00  0.0000000000000000e+00  0.0000000000000000e+00  0.0000000000000000e+00  0.0000000000000000e+00  0.0000000000000000e+00  0.0000000000000000e+00  0.0000000000000000e+00  0.0000000000000000e+00  0.0000000000000000e+00  0.0000000000000000e+00  0.0000000000000000e+00  0.0000000000000000e+00  0.0000000000000000e+00  0.0000000000000000e+00  0.0000000000000000e+00  0.0000000000000000e+00  0.0000000000000000e+00  0.0000000000000000e+00  0.0000000000000000e+00  -1.6620816342923471e-02  -1.3158818568549294e-02  -7.8723910001205870e-03  -3.3358603040117966e-03  -3.2208733392467121e-04  2.0135561670239057e-03  3.2668146587647735e-03  3.0401002185938080e-03  4.0155231567273689e-03  2.4470530015684791e-03  -7.1573576293057332e-04  -4.0002560847871519e-03  -7.7854767733349668e-03  -1.2637951279894906e-02  -1.6402210052174751e-02  -1.7323422578498466e-02  -1.3303609818072510e-02  -8.3711035015403487e-03  -3.6122591557186932e-03  -1.0678509010850976e-03  1.4700964818311815e-03  2.0255361447488801e-03  1.4044320405491985e-03  1.8163864956016523e-03  1.1105855658765124e-03  1.0210901610036400e-03  1.6658089726939095e-03  1.0339125849859506e-03  1.6537360920178396e-03  -1.7084328287680414e-03  -4.6671379650128249e-03  -8.6108726174648782e-03  -1.3193752077353998e-02  -1.7342420690743817e-02  -1.7042197928063562e-02  -1.3057866158020270e-02  -7.9759032576338078e-03  -3.2723368258978764e-03  -5.7776602332262656e-04  1.6314494529522806e-03  2.9159700993385317e-03  3.9271228603143622e-03  4.0671125099484701e-03  2.3457899637088098e-03  1.4964665015677734e-04  -2.6091365991171987e-03  -7.8562118617866075e-03  -1.2887418440265086e-02  -1.6933363886866289e-02  -1.7200091727497160e-02  -1.3361236655913485e-02  -9.0515608666595741e-03  -4.7657855502501569e-03  -1.6922836569969269e-03  1.4727308021707411e-03  9.3646046673667184e-04  2.0209214668767328e-03  1.6065370251490668e-03  1.3227585634024669e-03  1.3815748909717957e-03  1.3354233670063345e-03  2.1674118772412724e-03  9.0815861646642169e-04  -1.4315346827428828e-03  -3.6597916019576069e-03  -8.3874024158217559e-03  -1.3353898393619296e-02  -1.7274443233172728e-02  6.7208594691267831e-02  6.9281508475078857e-02  6.7768514581476050e-02  6.9545453801815135e-02  6.2401725868630506e-02  7.2229140648972345e-02  6.7365270081300430e-02  6.7157477990563125e-02  7.1310801109600294e-02  7.5219030026206404e-02  8.1465789896750837e-02  7.8837179000154606e-02  7.6885568471241270e-02  7.3138030424159173e-02  5.2153996290201440e-02  8.7435540262556885e-02  5.9987977741848761e-02  5.7455037436948499e-02  7.8601389833717811e-02  5.5383008747684724e-02  4.0590520953852766e-02  4.1947227563077803e-02  3.9071855442035112e-02  3.9134080426313271e-02  2.3115416409996196e-02  2.6115018243549833e-02  2.3474015771623807e-02  2.3260682008848389e-02  5.5397950708408666e-02  1.0892783416454144e-01  1.2810674474413405e-01  2.6510232674263401e-01  3.3489672936773035e-01  6.5851844949019356e-01  7.9935363461625064e-01  8.5672027523598315e-01  4.8920866158983412e-01  1.0369242676661456e+00  1.0971602745532081e+00  8.5803495878215941e-01  1.0137889813670116e+00  6.5704344606066312e-01  8.5576865570032590e-01  1.0964265456102606e+00  8.9997080607800894e-01  1.0852582846839649e+00  8.2570373040783474e-01  9.3658821719674468e-01  6.7176556176002067e-01  6.4224295348686811e-01  8.9786268728372665e-01  1.0914604601362188e+00  9.6453972976196245e-01  1.1206184999445512e+00  9.3936049506830777e-01  1.0757948510688540e+00  8.8980478649133410e-01  9.6360873399303626e-01  7.0150659221380784e-01  8.1765099312326917e-01  1.0521785183942343e+00  8.5581025841852554e-01  1.0242464530030497e+00  6.1272365326380418e-01  3.8796457197418877e-01  3.2025706818049232e-01  3.7310127679248972e-01  3.5504533414606526e-01  1.9427119650498301e-01  6.3942821152280183e-01  9.8188734661051991e-01  1.4571302359033986e-01  2.2555222092151928e-01  4.3611932407501569e-01  3.3885841180690901e-01  5.8872591294116228e-01  1.0276587290099717e+00  5.2043741195401716e-01  9.6453475347646134e-01  1.1776631221063982e+00  1.0187899111565359e+00  8.2665257827895955e-01  8.4971553533048805e-01  1.1157299345232174e+00  8.2672614251501531e-01  6.5832260373300577e-01  6.1752332003254107e-01  7.5436058309872234e-01  3.7613758392648228e-01  2.2896416860710028e-01  1.2511501496134247e-01  1.3318867591871286e-01  1.2455150510065121e+00  1.8197294542770076e-01  2.9722575474029145e-01  1.4074370958049023e-01  1.9875615306068906e-01  1.1341443297935078e-01  9.8804370933339006e-02  1.8726850923890428e-01  4.4482500584802259e-01  1.4270307214433295e-01  1.0454732359071632e-01  1.9060478762036806e-01  4.9068796447151719e-01  2.5486616201629275e-01  3.0166898301963890e-01  3.3290411425241645e-01  1.6648106999324572e-01  1.3853732739810828e-01  1.1011978039848466e-01  1.8994432854661025e-01  1.1974840718020069e-01  1.8384278274574889e-01  9.1006762942763095e-02  4.6881358300678960e-01  1.3100155343429527e+00  1.0441803135564585e-01  1.3013966830928212e+00  6.9535590864376684e-01  2.1502680038022645e-01  5.7733481534394282e-01  2.2091631959825847e-01  1.1993676560020124e-01  1.0704816848058479e-01  1.8503869987597427e-01  5.6533944661895896e-01  2.4300519859813510e-01  1.3961006938856069e-01  1.1292261889146751e+00  6.8132505328134640e-02  5.5940347775912322e-02  5.4667737904571201e-01  1.9536684441921653e-01  2.4625518059216681e-01  3.6736350570712362e-01  2.1140468163056580e-01  1.1928617545220679e-01  2.2629575167087343e-01  1.4138977734762515e-01  1.0212527608422964e-01  7.3384476862605019e-02  3.9129537895745602e-02  5.6475629256556456e-02  1.1935116249371250e-01  8.2100027092904343e-02  7.6324716364944145e-02  7.5406271056448829e-02  3.5933952078591569e-02  3.8123421058771222e-02  7.8535175953537401e-02  1.5204493147994688e-01  4.1832036939619444e-01  5.8677799541077012e-02  7.4554644763119557e-02  8.4462384042522848e-02  5.6027252411724147e-02  8.8199429017371905e-02  8.1437197917819629e-02  7.1372625096461709e-02  4.0186505637137972e-02  6.6131517975510604e-02  7.5174759779281952e-02  6.4670015605633971e-02  1.0352467035968325e-01  7.6618257350079516e-02  1.3343438490447468e-01  7.7194079880838665e-02  6.5307560062407288e-02  3.9107549027010871e-02  3.7677511884704751e-02  1.0209169245959900e-01  2.0154124358783121e-01  7.0287157977246148e-02  7.3977654244823041e-02  1.1107141909940151e-01  2.3185851679296422e-02  2.3534212481187221e-02  2.2949106804349726e-02  2.3680012625737767e-02  7.0753447733592156e-02  1.1850181384076734e+00  1.3518037245325680e+00  1.2837529462138858e-01  6.5401706589646585e-02  6.0894533970078393e-02  6.4952465745648030e-02  3.7799384486073187e-02  7.4475807284036188e-02  1.0159563479558223e-01  1.7185247109644472e-01  3.1922504254345774e-01  7.6763887703289443e-02  2.3882408781608877e-01  1.2591845040714100e+00  1.2730129411337776e+00  9.3887448756283198e-01  1.8434805321364411e-01  1.0311130524805286e-01  1.5607114208001943e-01  1.4257519545268138e-01  1.6268859700770791e-01  7.0745887807900365e-02  6.9234731906838778e-02  1.2409522198905758e+00  5.8719784606504746e-02  1.4807638454352517e-01  1.3176405737541444e-01  5.5578608537877106e-01  9.1060618355461212e-02  4.4635905886546068e-01  9.5661815662085292e-01  6.6714970274657892e-02  1.3779528957641833e+00  7.1279696653806690e-01  3.0048066857212050e-02  3.7981055844266304e-01  1.4609375585403581e-01  1.3621463215994614e-01  1.2006002490174450e+00  6.9699024404647467e-02  1.1798277678767345e-01  1.4455488268026342e-01  1.3938678402164821e+00  1.1507160362011869e-01  2.2992956443681084e-01  1.3544071904412434e+00  4.3242844606403280e-01  1.5648018135321001e-01  1.3883298025621851e+00  4.7548411598756973e-01  1.0099861111268654e-01  1.0531384501530466e-01  2.6616446342353478e-01  6.5119117347509015e-01  1.4212548999645594e-01  6.0499289178975041e-02  4.0574235548692328e-01  2.3070938579871556e-02  2.3205476130285046e-02  2.2615737275432871e-02  2.3340119025061501e-02  1.2442282434030510e-01  6.3475706619483832e-02  9.5412382643679627e-02  7.6406681356067888e-02  1.3928996886264397e-01  7.4200019979310228e-01  7.3497937687199852e-02  1.0228520080390760e-01  4.3853396057108518e-01  8.5852946237812622e-01  6.2172258516903567e-01  9.0765784092925250e-01  9.2021279234818731e-02  8.6124294777982302e-01  1.8172412592921547e-01  8.2267383600095501e-01  1.3859169210387896e+00  1.8384578118184225e-01  5.8258560067730714e-01  2.9731200455845935e-01  1.4064231421872944e-01  4.9139116926453752e-01  8.3965413133146272e-01  1.2813700507406756e+00  4.1217781513416374e-02  -1.0868060675224047e-02  -1.0862657633673249e-02  -1.3584566060859806e-02  -1.9086181836721946e-02  -1.3657552336685523e-02  -1.9400740713425037e-02  -1.0894832228202634e-02  -1.3222520166020043e-02  -1.1068415915891160e-02  -1.3447352585472264e-02  -1.9199402512955915e-02  -1.9241352530741055e-02  -1.3058657966525597e-02  -1.2499662191582214e-02  -1.3587606798888664e-02  -1.2765804850574857e-02  -1.0631428663497691e-02  -1.7947244895270664e-02  -1.8025135004879032e-02  -1.0548995890182310e-02  -2.1905915688711131e-02  -2.3038518418017191e-02  -1.1736786928082572e-02  -1.1599592645473592e-02  -2.0277372028842191e-02  -2.2759840416193389e-02  -2.3653649387852058e-02  -2.3834156671156334e-02  -2.4163700785617716e-02  -2.4294186875142995e-02  -1.3736010140516250e-02  -1.3398662976155105e-02  -1.3707839256393916e-02  -1.3388436525469376e-02  -1.3456358928244216e-02  -1.3410604201670402e-02  -1.3509323196890553e-02  -2.4305861516778632e-02  -2.4398745592117382e-02  -2.3264687856238815e-02  -2.2395923713435940e-02  -1.3301825285413859e-02  -1.3447990960802394e-02  -1.3394161442772385e-02  -1.2864747991739698e-02  -1.2930061801397193e-02  -1.2761622675828428e-02  -1.3813309380822390e-02  -1.3388433143957474e-02  -2.2489014962889763e-02  -2.1656695895023552e-02  -1.3753983842978549e-02  -1.3421494580908550e-02  -1.3761354391370929e-02  -2.2468502159659367e-02  -2.3168339081455686e-02  -2.3510862060742044e-02  -2.3989560367116837e-02  -2.4216288601654139e-02  -2.4316845046914021e-02  -2.3982899582978317e-02  -2.4358221527572201e-02  -2.4189275341424572e-02  -2.4030183076086124e-02  -2.2382434599627906e-02  -2.3144025752327501e-02  -2.3446826654134743e-02  -2.3924118433256390e-02  -2.3432758467858295e-02  -2.4145708964023408e-02  -2.4243748289083121e-02  -2.4293754779117535e-02  -2.4124679246810655e-02  -2.3984318329516689e-02  -1.5105894911892057e-02  -2.1904945558819985e-02  -2.3061805598987972e-02  -2.2786041067869980e-02  -2.3683097344615683e-02  -2.3849887333674619e-02  -2.4184405620107954e-02  -2.4324766021443706e-02  -2.4328598401091563e-02  -2.4392651216460254e-02  -9.3752048657365777e-03  -1.0091220989806136e-02  -1.3439282119232985e-02  -1.3564599147730070e-02  -2.3785037485251258e-02  -2.3886885210964045e-02  -2.3707760643860983e-02  -2.3948943665708201e-02  -2.3975683883311807e-02  -2.3846218391880530e-02  -1.3498325561396204e-02  -2.3761643922743467e-02  -2.4149949220433745e-02  -2.3904486346871548e-02  -2.3735436007437962e-02  -2.4019266114171461e-02  -2.3924505693511868e-02  -1.4919439043575811e-02  -2.2608341542000202e-02  -2.2730896075892591e-02  -1.1810034969156072e-02  -1.1539505017762096e-02  -1.1746690724880450e-02  -2.2625079285520801e-02  -2.2696072043782843e-02  -2.1118300679990775e-02  -2.0431179755553974e-02  -2.3104438172422380e-02  -2.3434568425584140e-02  -2.3024775372108855e-02  -2.3323428722919374e-02  -2.2394036021014314e-02  -2.3086987123640861e-02  -2.1917686363534260e-02  -2.2195556285806394e-02  -2.1297653275355471e-02  -2.1162332443854407e-02  -2.2505939711593356e-02  -2.3078681071449735e-02  -2.1953969300628165e-02  -2.2138973430117639e-02  -2.1297639874527010e-02  -2.1220479878749521e-02  -2.0662345700892877e-02  -2.0446343044268567e-02  -2.0172260647211549e-02  -1.9946979618570046e-02  -1.9857112992557765e-02  -1.9759859501192058e-02  -1.9773260662541887e-02  -1.9891312387996300e-02  -2.0615857774929615e-02  -2.0385925027763242e-02  -2.0106295920216146e-02  -1.9881401612723566e-02  -1.9782181738445783e-02  -1.9685369134554924e-02  -1.9686087856976404e-02  -1.9815521998942667e-02  -2.2535169630344035e-02  -2.2463806029861904e-02  -2.3691252432114833e-02  -2.3618754116333938e-02  -2.2490290516468829e-02  -2.2280543927750321e-02  -1.9965064036376434e-02  -2.0330045219055543e-02  -2.0306385946750896e-02  -2.0998233304125809e-02  -2.0749184443395824e-02  -1.9874088663710855e-02  -2.0250561805995423e-02  -2.0207031735667413e-02  -2.0916235266170626e-02  -2.0642933981834640e-02  -2.3757532042176933e-02  -2.2811681592730480e-02  -2.2277351505464733e-02  -1.9759178985115460e-02  -2.0602536276370063e-02  -1.9824505788711512e-02  -2.0649527959165217e-02  -1.8792712577540348e-02  -2.0726451890285012e-02  -1.8914163210926538e-02  -2.0856065294037059e-02  -1.9178530011548227e-02  -1.8700353817662288e-02  -1.9201887639423161e-02  -2.1866656595622789e-02  -2.1100360031990270e-02  -2.0506862865975781e-02  -1.8607909476040102e-02  -2.1920348649096956e-02  -2.0824253442692172e-02  -2.0684411934140886e-02  -2.0307980559696868e-02  -2.0761705689580249e-02  -1.8967456857454237e-02  -1.9227353598083429e-02  -1.8377722421628061e-02  -1.9675638854176229e-02  -1.9839306104490240e-02  -2.1468708339926985e-02  -1.7414065325928582e-02  -2.3256686029741725e-02  -9.2671641327226502e-03  -2.1169815597245362e-02  -2.3395014963222206e-02  -1.9524465824206447e-02  -1.7862915546411989e-02  -1.8680956499832833e-02  -1.9573374118732428e-02  -2.2600739186789707e-02  -2.2510694520119036e-02  -2.1527636839300587e-02  -2.2438422286834646e-02  -2.1404784527031484e-02  -2.1762361656202947e-02  -2.0735903690850151e-02  -2.0682813420287303e-02  -1.9861087329380227e-02  -2.1708866690429127e-02  -1.9424853007886485e-02  -1.8993617999347363e-02  -1.8116360347933163e-02  -1.8251085381787855e-02  -1.7286732553093924e-02  -1.7793768701678696e-02  -1.6828492448910045e-02  -2.0919767921250630e-02  -2.0980040292673637e-02  -1.9921066538173788e-02  -2.1499251688821410e-02  -1.8672204583242345e-02  -1.7688175495602816e-02  -1.7766679092494336e-02  -1.7563839926548207e-02  -2.0085239701064531e-02  -2.0391727965486304e-02  -1.7533309092533443e-02  -8.8270111747786994e-03  -9.5390337150483423e-03  -9.0931669917377403e-03  -2.2613342571696147e-02  -2.1572025228724236e-02  -2.3038122038437293e-02  -2.1354166623498826e-02  -2.1913466712589414e-02  -1.7596932614500422e-02  -1.8484837222402909e-02  -1.8423028542616706e-02  -2.0034351435673965e-02  -2.0707554142902911e-02  -2.1229159431230011e-02  -2.0012010119302818e-02  -1.9372484879233216e-02  -1.8968235990761865e-02  -1.8677040765388130e-02  -1.7738766248627125e-02  -1.8368877866218856e-02  -1.7554195504455587e-02  -1.7675297587949203e-02  -1.7656655773738372e-02  -1.6612694144906657e-02  -1.7034664485073039e-02  -1.7894246226263486e-02  -1.7819850852922280e-02  -1.8157499728743455e-02  -1.8892646839595476e-02  -1.8176006538880546e-02  -1.9430251738442601e-02  -1.9669013647324762e-02  -2.0701747557027878e-02  -2.0162280161296404e-02  -2.1826566620843282e-02  -2.0106495055655989e-02  -2.1905560787878520e-02  -1.8904893880817512e-02  -2.0178644954477725e-02  -1.8175648275193652e-02  -2.2614547482536322e-02  -2.2007835996139740e-02  -1.8061370695694464e-02  -1.7716486390476405e-02  -1.8940482197897381e-02  -1.8215071090168199e-02  -2.2647482680152108e-02  -1.6643615901476536e-02  -2.1728103289201734e-02  -1.7392188604276954e-02  -1.6513622653498476e-02  -1.7919136374801983e-02  -2.1730991190489726e-02  -1.8203945292927574e-02  -2.1378124862914755e-02  -1.5952983454450006e-02  -1.8847244411234282e-02  -1.9179131573192770e-02  -1.6562375231776040e-02  -1.8854615310489813e-02  -1.9675935781404169e-02  -1.7290712029467799e-02  -1.6340728574348554e-02  -1.8573915531847514e-02  -1.9588934288937251e-02  -1.8699819987608855e-02  -1.9411444399315268e-02  -1.5010893174505843e-02  -1.5454846034260320e-02  -1.7030328505470173e-02  -2.1978160449380866e-02  -1.9814052093672197e-02  -1.9551983517975480e-02  -1.5809356666270917e-02  -1.55226676