<?xml version="1.0"?>
<VTKFile type="UnstructuredGrid"  version="0.1"  >
<UnstructuredGrid>
<Piece  NumberOfPoints="1297" NumberOfCells="2496">
<Points>
<DataArray  type="Float64"  NumberOfComponents="3"  format="ascii">0 0 0  0 1 0  1 1 0  1 0 0  1.1 -0.1 0  -0.1 -0.1 0  1.1 1.1 0  -0.1 1.1 0  0.2925059173861452 0.6754841594904958 0  0.2929277706506268 0.3251884410719034 0  0.707461670636465 0.3245123906611201 0  0.7074048066955546 0.6756065809376822 0  0.5000973322829102 0.5001553578348997 0  0 0.9499999999997918 0  0 0.8999999999995836 0  0 0.8499999999996529 0  0 0.7999999999999998 0  0 0.7500000000003466 0  0 0.7000000000006934 0  0 0.6500000000010401 0  0 0.6000000000013869 0  0 0.5500000000017335 0  0 0.5000000000020587 0  0 0.4500000000018723 0  0 0.4000000000016644 0  0 0.3500000000014564 0  0 0.3000000000012483 0  0 0.2500000000010403 0  0 0.2000000000008322 0  0 0.1500000000006241 0  0 0.100000000000416 0  0 0.05000000000020799 0  0.04999999999989965 0 0  0.09999999999981467 0 0  0.1499999999997036 0 0  0.1999999999995579 0 0  0.2499999999994121 0 0  0.2999999999992664 0 0  0.3499999999991206 0 0  0.3999999999989749 0 0  0.4499999999988292 0 0  0.4999999999986943 0 0  0.5499999999988151 0 0  0.5999999999989468 0 0  0.6499999999990784 0 0  0.69999999999921 0 0  0.7499999999993417 0 0  0.7999999999994734 0 0  0.8499999999996051 0 0  0.8999999999997368 0 0  0.9499999999998684 0 0  1 0.04999999999989965 0  1 0.09999999999981467 0  1 0.1499999999997036 0  1 0.1999999999995579 0  1 0.2499999999994121 0  1 0.2999999999992664 0  1 0.3499999999991206 0  1 0.3999999999989749 0  1 0.4499999999988292 0  1 0.4999999999986943 0  1 0.5499999999988151 0  1 0.5999999999989468 0  1 0.6499999999990784 0  1 0.69999999999921 0  1 0.7499999999993417 0  1 0.7999999999994734 0  1 0.8499999999996051 0  1 0.8999999999997368 0  1 0.9499999999998684 0  0.9499999999997918 1 0  0.8999999999995836 1 0  0.8499999999996529 1 0  0.7999999999999998 1 0  0.7500000000003466 1 0  0.7000000000006934 1 0  0.6500000000010401 1 0  0.6000000000013869 1 0  0.5500000000017335 1 0  0.5000000000020587 1 0  0.4500000000018723 1 0  0.4000000000016644 1 0  0.3500000000014564 1 0  0.3000000000012483 1 0  0.2500000000010403 1 0  0.2000000000008322 1 0  0.1500000000006241 1 0  0.100000000000416 1 0  0.05000000000020799 1 0  -0.1 1.05000000000004 0  -0.1 1.000000000000079 0  -0.1 0.9500000000001624 0  -0.1 0.9000000000003032 0  -0.1 0.850000000000444 0  -0.1 0.8000000000005848 0  -0.1 0.7500000000007256 0  -0.1 0.7000000000008665 0  -0.1 0.6500000000010508 0  -0.1 0.6000000000012352 0  -0.1 0.5500000000014196 0  -0.1 0.500000000001539 0  -0.1 0.4500000000014195 0  -0.1 0.4000000000013 0  -0.1 0.3500000000011588 0  -0.1 0.3000000000010178 0  -0.1 0.2500000000008986 0  -0.1 0.2000000000007579 0  -0.1 0.1500000000006174 0  -0.1 0.1000000000005272 0  -0.1 0.05000000000040083 0  -0.1 2.671196597248127e-13 0  -0.1 -0.0499999999998666 0  -0.0500000000000906 -0.1 0  -1.730560139634463e-13 -0.1 0  0.04999999999975802 -0.1 0  0.09999999999961506 -0.1 0  0.1499999999994613 -0.1 0  0.199999999999302 -0.1 0  0.2499999999991446 -0.1 0  0.2999999999990088 -0.1 0  0.3499999999988296 -0.1 0  0.3999999999986936 -0.1 0  0.4499999999985143 -0.1 0  0.4999999999984002 -0.1 0  0.5499999999985247 -0.1 0  0.5999999999986493 -0.1 0  0.6499999999987955 -0.1 0  0.6999999999989417 -0.1 0  0.7499999999990659 -0.1 0  0.7999999999992116 -0.1 0  0.8499999999993573 -0.1 0  0.8999999999994526 -0.1 0  0.949999999999584 -0.1 0  0.9999999999997226 -0.1 0  1.049999999999861 -0.1 0  1.1 -0.0500000000000906 0  1.1 -1.730560139634463e-13 0  1.1 0.04999999999975802 0  1.1 0.09999999999961506 0  1.1 0.1499999999994613 0  1.1 0.199999999999302 0  1.1 0.2499999999991446 0  1.1 0.2999999999990088 0  1.1 0.3499999999988296 0  1.1 0.3999999999986936 0  1.1 0.4499999999985143 0  1.1 0.4999999999984002 0  1.1 0.5499999999985247 0  1.1 0.5999999999986493 0  1.1 0.6499999999987955 0  1.1 0.6999999999989417 0  1.1 0.7499999999990659 0  1.1 0.7999999999992116 0  1.1 0.8499999999993573 0  1.1 0.8999999999994526 0  1.1 0.949999999999584 0  1.1 0.9999999999997226 0  1.1 1.049999999999861 0  1.05000000000004 1.1 0  1.000000000000079 1.1 0  0.9500000000001624 1.1 0  0.9000000000003032 1.1 0  0.850000000000444 1.1 0  0.8000000000005848 1.1 0  0.7500000000007256 1.1 0  0.7000000000008665 1.1 0  0.6500000000010508 1.1 0  0.6000000000012352 1.1 0  0.5500000000014196 1.1 0  0.500000000001539 1.1 0  0.4500000000014195 1.1 0  0.4000000000013 1.1 0  0.3500000000011588 1.1 0  0.3000000000010178 1.1 0  0.2500000000008986 1.1 0  0.2000000000007579 1.1 0  0.1500000000006174 1.1 0  0.1000000000005272 1.1 0  0.05000000000040083 1.1 0  2.671196597248127e-13 1.1 0  -0.0499999999998666 1.1 0  0.28544390447976 0.6613173953499741 0  0.280042655377969 0.6418674920602458 0  0.2757215310172335 0.6195856392156089 0  0.2713955140854322 0.5953547676624468 0  0.2668934182777832 0.5707265721837644 0  0.2628465258033169 0.5467798397956305 0  0.2602544855277658 0.5234396302342219 0  0.2594943769650277 0.5004504309813068 0  0.260608464934391 0.4773550294802052 0  0.2635269168990091 0.4538663523775535 0  0.267653304321046 0.4297386458027284 0  0.2720769148529134 0.4050942857574068 0  0.2762975987565913 0.3809866547942759 0  0.2805609720396119 0.3587342882328461 0  0.285939741233879 0.3393172234731783 0  0.3060795960546733 0.3164831616838258 0  0.3241692331939522 0.3085903196153647 0  0.3453678653680542 0.3008402009414488 0  0.3680380910491588 0.2920793560219154 0  0.3905232763366784 0.2824545457362432 0  0.4121274668877672 0.2732336252556277 0  0.4335120301600982 0.2654345579003051 0  0.4550727188932305 0.2594755408573311 0  0.4772508703311857 0.2553823812160189 0  0.49990924582534 0.2537425694939849 0  0.5225858984557661 0.2548181728297504 0  0.5448746600408083 0.2586117307931046 0  0.5662246764388711 0.2648314971133491 0  0.5876577327086167 0.2724593397383006 0  0.609220637579504 0.2815734188900724 0  0.6317694324330294 0.2910483428712796 0  0.6546869033545882 0.2998486834856116 0  0.675965927128292 0.3077321653184816 0  0.6941299468659445 0.3157638051295573 0  0.7145039474001882 0.3389755742502004 0  0.719907793289866 0.3583867113581487 0  0.7242322560492244 0.3808743556536331 0  0.7285288065354507 0.4051618785805615 0  0.7330895218822285 0.4298137039375882 0  0.7372403450135904 0.4538892121639775 0  0.7401196573296932 0.4773053125849511 0  0.7412351024216444 0.500448637985047 0  0.7403209565837806 0.5236429120873036 0  0.7372680117304609 0.5470121318978366 0  0.7328995068038742 0.5709949475547199 0  0.728241342967885 0.5955481427610716 0  0.7241129240233 0.6195852437476158 0  0.7198653299285609 0.641884606162879 0  0.7144598572207819 0.6612003715121554 0  0.6940970450843238 0.6843095439534311 0  0.6759113393756058 0.6922658430733962 0  0.6545520934062723 0.7001492432873258 0  0.6316480519993367 0.7089398360877217 0  0.6091475054736892 0.7185100608436498 0  0.5876809616037693 0.7278362465925089 0  0.5663070683768366 0.7357555361317107 0  0.5449149417288385 0.7421998222560328 0  0.5226388570628776 0.7462865807294417 0  0.4999296553972852 0.7476780452018265 0  0.4772576859368762 0.7463021533223271 0  0.45507694909428 0.7422961345495089 0  0.4334463957151826 0.7361069326923383 0  0.4122812723731066 0.7278819350569692 0  0.3907956595864583 0.7184528219174487 0  0.367991430146913 0.7087315880708932 0  0.3451084756892051 0.6999446222401587 0  0.3238933827313635 0.692164968861557 0  0.3057413522649922 0.6842175360549919 0  0.3783477506958134 0.3119134047367168 0  0.2858072290270921 0.4406550305629432 0  0.3783603395508816 0.6887974309746149 0  0.2852927048421802 0.5599285546635893 0  0.7125412935363297 0.5837530391841126 0  0.599337074063363 0.6970096601124999 0  0.6205711453056354 0.310487382236208 0  0.7161481555357272 0.4399913785505575 0  0.7200306989936544 0.511660651720562 0  0.5551806716588041 0.2904561493604707 0  0.44481825429864 0.2934853677533722 0  0.4436347734920973 0.7077297138182445 0  0.5338061888892235 0.712335341845037 0  0.2812557717265093 0.4885241929105605 0  0.2916743716167024 0.3920540954732447 0  0.4886433817438262 0.2908437449562165 0  0.2960903171100511 0.6067868502511842 0  0.7036379220765476 0.3897948998936618 0  0.4887032140350916 0.7143968029823456 0  0.6437838206404681 0.6822638279940949 0  0.3343357056054326 0.3273786079009005 0  0.6660902733268198 0.3280959250796193 0  0.3347340684467308 0.675522400229962 0  0.7025276374978078 0.6331061560569415 0  0.3003267195852041 0.3476758313933199 0  0.3019491993964485 0.6517783403301555 0  0.6852283772162635 0.6698344579536842 0  0.7006107441995372 0.3467731348553855 0  0.3561387268419178 0.6818688277757931 0  0.3663364746395724 0.6626712132494166 0  0.3880305011085989 0.6673549520074786 0  0.3750060084016983 0.641393700056011 0  0.3976503044052138 0.6437851399303005 0  0.3835723449328722 0.6158079560315356 0  0.411572078588355 0.6160731645398596 0  0.3943765896987853 0.5852132384977055 0  0.3567716970033024 0.6132792845990578 0  0.4291879332117798 0.5851923018647717 0  0.4072996330375361 0.5495662539690245 0  0.3676326621344393 0.554834312618287 0  0.3834756533992031 0.5148477207401359 0  0.3464715015956358 0.5168918108148096 0  0.3593672096902252 0.4814863260372748 0  0.3985911898616959 0.4759016052066954 0  0.3784817138665288 0.4425763340178109 0  0.41509815032796 0.4369822922747215 0  0.3958235536626283 0.4060915078389955 0  0.4297852382665088 0.3956710314175806 0  0.3618794774558726 0.4074482906810415 0  0.4057131273459184 0.372997541828589 0  0.4391983091831105 0.6167792282750664 0  0.4650432178667004 0.5918613537259504 0  0.4837630418768943 0.6156768223341483 0  0.502228551640825 0.5929769098322455 0  0.5198329059005922 0.616066313479908 0  0.5385238978890716 0.5938199946871648 0  0.5557587970164065 0.6181920455236991 0  0.5748233746375802 0.5957005229578658 0  0.592127579421329 0.6237610010260692 0  0.6106833532501549 0.5907276572487549 0  0.5960216685591021 0.5566
[...]
<PointData  Scalars="state"> 
<DataArray  type="Float64"  Name="state"  format="ascii">0.0000000000000000e+00  0.0000000000000000e+00  0.0000000000000000e+00  0.0000000000000000e+00  0.0000000000000000e+00  0.0000000000000000e+00  0.0000000000000000e+00  0.0000000000000000e+00  -2.0760571256142720e-02  -2.0854214020024596e-02  -2.0920350601420744e-02  -2.0835699833754093e-02  1.3471983664631808e+00  0.0000000000000000e+00  0.0000000000000000e+00  0.0000000000000000e+00  0.0000000000000000e+00  0.0000000000000000e+00  0.0000000000000000e+00  0.0000000000000000e+00  0.0000000000000000e+00  0.0000000000000000e+00  0.0000000000000000e+00  0.0000000000000000e+00  0.0000000000000000e+00  0.0000000000000000e+00  0.0000000000000000e+00  0.0000000000000000e+00  0.0000000000000000e+00  0.0000000000000000e+00  0.0000000000000000e+00  0.0000000000000000e+00  0.0000000000000000e+00  0.0000000000000000e+00  0.0000000000000000e+00  0.0000000000000000e+00  0.0000000000000000e+00  0.0000000000000000e+00  0.0000000000000000e+00  0.0000000000000000e+00  0.0000000000000000e+00  0.0000000000000000e+00  0.0000000000000000e+00  0.0000000000000000e+00  0.0000000000000000e+00  0.0000000000000000e+00  0.0000000000000000e+00  0.0000000000000000e+00  0.0000000000000000e+00  0.0000000000000000e+00  0.0000000000000000e+00  0.0000000000000000e+00  0.0000000000000000e+00  0.0000000000000000e+00  0.0000000000000000e+00  0.0000000000000000e+00  0.0000000000000000e+00  0.0000000000000000e+00  0.0000000000000000e+00  0.0000000000000000e+00  0.0000000000000000e+00  0.0000000000000000e+00  0.0000000000000000e+00  0.0000000000000000e+00  0.0000000000000000e+00  0.0000000000000000e+00  0.0000000000000000e+00  0.0000000000000000e+00  0.0000000000000000e+00  0.0000000000000000e+00  0.0000000000000000e+00  0.0000000000000000e+00  0.0000000000000000e+00  0.0000000000000000e+00  0.0000000000000000e+00  0.0000000000000000e+00  0.0000000000000000e+00  0.0000000000000000e+00  0.0000000000000000e+00  0.0000000000000000e+00  0.0000000000000000e+00  0.0000000000000000e+00  0.0000000000000000e+00  0.0000000000000000e+00  0.0000000000000000e+00  0.0000000000000000e+00  0.0000000000000000e+00  0.0000000000000000e+00  0.0000000000000000e+00  0.0000000000000000e+00  0.0000000000000000e+00  0.0000000000000000e+00  0.0000000000000000e+00  0.0000000000000000e+00  0.0000000000000000e+00  0.0000000000000000e+00  0.0000000000000000e+00  0.0000000000000000e+00  0.0000000000000000e+00  0.0000000000000000e+00  0.0000000000000000e+00  0.0000000000000000e+00  0.0000000000000000e+00  0.0000000000000000e+00  0.0000000000000000e+00  0.0000000000000000e+00  0.0000000000000000e+00  0.0000000000000000e+00  0.0000000000000000e+00  0.0000000000000000e+00  0.0000000000000000e+00  0.0000000000000000e+00  0.0000000000000000e+00  0.0000000000000000e+00  0.0000000000000000e+00  0.0000000000000000e+00  0.0000000000000000e+00  0.0000000000000000e+00  0.0000000000000000e+00  0.0000000000000000e+00  0.0000000000000000e+00  0.0000000000000000e+00  0.0000000000000000e+00  0.0000000000000000e+00  0.0000000000000000e+00  0.0000000000000000e+00  0.0000000000000000e+00  0.0000000000000000e+00  0.0000000000000000e+00  0.0000000000000000e+00  0.0000000000000000e+00  0.0000000000000000e+00  0.0000000000000000e+00  0.0000000000000000e+00  0.0000000000000000e+00  0.0000000000000000e+00  0.0000000000000000e+00  0.0000000000000000e+00  0.0000000000000000e+00  0.0000000000000000e+00  0.0000000000000000e+00  0.0000000000000000e+00  0.0000000000000000e+00  0.0000000000000000e+00  0.0000000000000000e+00  0.0000000000000000e+00  0.0000000000000000e+00  0.0000000000000000e+00  0.0000000000000000e+00  0.0000000000000000e+00  0.0000000000000000e+00  0.0000000000000000e+00  0.0000000000000000e+00  0.0000000000000000e+00  0.0000000000000000e+00  0.0000000000000000e+00  0.0000000000000000e+00  0.0000000000000000e+00  0.0000000000000000e+00  0.0000000000000000e+00  0.0000000000000000e+00  0.0000000000000000e+00  0.0000000000000000e+00  0.0000000000000000e+00  0.0000000000000000e+00  0.0000000000000000e+00  0.0000000000000000e+00  0.0000000000000000e+00  0.0000000000000000e+00  0.0000000000000000e+00  0.0000000000000000e+00  0.0000000000000000e+00  0.0000000000000000e+00  0.0000000000000000e+00  0.0000000000000000e+00  0.0000000000000000e+00  0.0000000000000000e+00  0.0000000000000000e+00  0.0000000000000000e+00  0.0000000000000000e+00  0.0000000000000000e+00  -1.8088658052815575e-02  -1.5673066070759106e-02  -1.1651317726793226e-02  -8.4784046341461888e-03  -6.6573345191556291e-03  -6.0204089402563950e-03  -5.6749369308706707e-03  -6.2937006705507167e-03  -4.9500868556426915e-03  -5.3337082818926797e-03  -6.9278201351159309e-03  -8.9835160067055966e-03  -1.1401514397440738e-02  -1.5092896661930333e-02  -1.7874565367970607e-02  -1.8322523225684256e-02  -1.5036048795466583e-02  -1.1016697301971820e-02  -7.5089399675729055e-03  -6.4140667672961263e-03  -5.1899000972685577e-03  -5.3347729553538852e-03  -6.2473259361945635e-03  -5.5422393631857098e-03  -6.2056575257084922e-03  -6.2419953807602889e-03  -5.6870646941575330e-03  -6.4094547808123846e-03  -4.8346796257388632e-03  -7.0248759428525650e-03  -8.5863485745772111e-03  -1.1313821313636884e-02  -1.4921927563334299e-02  -1.8281362729582529e-02  -1.8382639052603036e-02  -1.5430517010340303e-02  -1.1629397898377783e-02  -8.2131543760103811e-03  -6.6287650959320462e-03  -6.0571989876220395e-03  -5.9866403064504229e-03  -5.4583895497515725e-03  -4.9510879217886817e-03  -5.4303119356026684e-03  -5.9700867246558070e-03  -7.5554744182338637e-03  -1.1599887481274143e-02  -1.5247061332109828e-02  -1.8270211143500314e-02  -1.8099977930755698e-02  -1.5027758204445314e-02  -1.1670310463058636e-02  -8.5815506250088019e-03  -6.9317060442554909e-03  -5.1288445358775997e-03  -6.5950747704066771e-03  -5.3229413352367380e-03  -5.6438774381438800e-03  -5.9222009792329160e-03  -5.9447799182520940e-03  -6.0513749686607748e-03  -4.9073434513722189e-03  -5.6172126693564877e-03  -6.5943350777730846e-03  -7.5472585335417215e-03  -1.0955128232172016e-02  -1.5050528110411101e-02  -1.8212144131199790e-02  5.8942681879107395e-02  5.6985370873597507e-02  5.9451062717739686e-02  5.6201548318372263e-02  5.2897302247457346e-02  6.2720461560352880e-02  5.8897039107362763e-02  5.4839705788898685e-02  5.3842074170829410e-02  6.3375266418154386e-02  6.7981289280448137e-02  6.7243448010339643e-02  6.5053954832522257e-02  5.5822995458697268e-02  4.4332528877525763e-02  7.4961809805810048e-02  5.0538463053646066e-02  4.8775507707587006e-02  6.7619981407071234e-02  4.8597043860086717e-02  3.8517151731790586e-02  3.9986528331550905e-02  3.7120638098069036e-02  3.6519781774404493e-02  2.4013619091520343e-02  2.6919218140342632e-02  2.4939934498744574e-02  2.4448853326717476e-02  4.8701608304981887e-02  8.5620032835532170e-02  1.1341351073236050e-01  1.9298202613057089e-01  2.7065809660435652e-01  5.5281824111956501e-01  7.2373364138227703e-01  7.8373355480645146e-01  2.6588265927685273e-01  9.4634325667197439e-01  9.8157892063830898e-01  7.3449293808168215e-01  9.1702733567527928e-01  4.9962153951714622e-01  7.2313851720585676e-01  9.7895649617767366e-01  8.1009635560448967e-01  9.6929969252326198e-01  7.6967803715749128e-01  8.6236591703653143e-01  5.0186374504590947e-01  5.4573317467970939e-01  8.3697032222618872e-01  1.0251990071886712e+00  9.0137901382459662e-01  1.0629168854049349e+00  8.7789000871946921e-01  1.0092932494764166e+00  8.3201161410325442e-01  8.7802231950055254e-01  6.1792365983758601e-01  7.7342687539588217e-01  9.3477278014754916e-01  7.4411373880491394e-01  9.2134640957653213e-01  4.2567269485968140e-01  2.5179896092825749e-01  2.9015035994445854e-01  4.1416808971807750e-01  2.3918100259539038e-01  1.4332401380899817e-01  6.2709169971980361e-01  9.1221786805443972e-01  1.3014952425627951e-01  2.0166944133435011e-01  5.2468678117520540e-01  3.8142128450748619e-01  6.4136625191007457e-01  9.5366691125597858e-01  5.9048166115036493e-01  9.0106397245503900e-01  1.1143562410740666e+00  9.4826761044725705e-01  7.7433970351758541e-01  7.7422443696700438e-01  1.0023696017228449e+00  7.7041203523214441e-01  5.4853058284580625e-01  4.3218258975126483e-01  5.9049664232819499e-01  1.9148605993811052e-01  1.4979737278855165e-01  9.6386168284559093e-02  1.0233598858221324e-01  1.1333358085974266e+00  1.3669559788221194e-01  1.5571526557817997e-01  1.1231467040235413e-01  1.4423089979955153e-01  8.6041453436064771e-02  8.3277032988617689e-02  1.2103691570969136e-01  4.9233783508637463e-01  1.3308882042906081e-01  7.8449762446222371e-02  1.8618743183671421e-01  3.2263837743608675e-01  1.7328623061124523e-01  1.6209622576474531e-01  2.3564644133887178e-01  1.2945786299630485e-01  1.0210038666615022e-01  8.5762329367584225e-02  1.3038708563213608e-01  9.3556100541920706e-02  1.4504724592387971e-01  6.9063608134405069e-02  3.0234681054800155e-01  1.2195550817168894e+00  8.2841392229384803e-02  1.2002178575281239e+00  5.3624061773602327e-01  1.5143677004909142e-01  4.2598482026863604e-01  1.6427881995340479e-01  8.9912676123080168e-02  7.9986457507633127e-02  1.4216068025440495e-01  4.5236463526407417e-01  1.9837054290423789e-01  1.0521122370918409e-01  1.0075046710708102e+00  5.7344450332769470e-02  4.7392463011329558e-02  3.9120867753203514e-01  1.5714829727421167e-01  1.7872320291125299e-01  3.0517067008839377e-01  1.9257313106447044e-01  1.0633079026840322e-01  1.5813851985768190e-01  9.9352292298059405e-02  7.8526964571013741e-02  6.0299349125251693e-02  3.5457234275941572e-02  4.9455531963840664e-02  8.9175462519170953e-02  6.4086788245295748e-02  6.4772654289766654e-02  6.2818511834855775e-02  3.3019976801843730e-02  3.5134032291963803e-02  6.7151605297273556e-02  1.3705267724863110e-01  3.7587000963424289e-01  4.9498165058320810e-02  6.4382907139510781e-02  7.2447310893411332e-02  4.9245149019739885e-02  7.5951682692814201e-02  6.8849055280231414e-02  6.1293774951143444e-02  3.7037737892444210e-02  5.4322162466802104e-02  6.3558774254669714e-02  5.4322948107581488e-02  8.0616194693971410e-02  6.5269917473120359e-02  1.1872191061480346e-01  6.5675624169220334e-02  5.7534016892938467e-02  3.7290488040169711e-02  3.3907965835764498e-02  7.8502735950048447e-02  2.1245965937292080e-01  5.9312667225763414e-02  6.3632380844033429e-02  8.6125329851411137e-02  2.4461836036578123e-02  2.4933976442067820e-02  2.3924926322998846e-02  2.5209420353428342e-02  5.6798772999479115e-02  1.1033684888996691e+00  1.2663644351174494e+00  9.6845317139353210e-02  5.5010020072022478e-02  5.1164337855234145e-02  5.1787116145577211e-02  3.5413817875666651e-02  6.3046302714940633e-02  8.2055641783017719e-02  1.6895327899875059e-01  2.1358536228959552e-01  6.5649736021769503e-02  1.7544536713832831e-01  1.1451801119106788e+00  1.1789123542718503e+00  8.3903010168361558e-01  1.2618311051257042e-01  8.1878716935370618e-02  1.4668274532672640e-01  1.2474361224570227e-01  1.4992654244025189e-01  5.4117728082111495e-02  5.2592309502048198e-02  1.1457314284936984e+00  4.7658009598281356e-02  1.3399839781093129e-01  1.1726992987530886e-01  5.0577130762395683e-01  6.8762005321848882e-02  4.5519608638021358e-01  8.6434345456315842e-01  5.2227194097999100e-02  1.2896685458055752e+00  6.2046056426219975e-01  2.8195018637518353e-02  3.8261120799151582e-01  1.3248164599680062e-01  1.2195824281160142e-01  1.1356169639074272e+00  5.4532202835787677e-02  1.0263542934996554e-01  1.3410861281049671e-01  1.3029925870093779e+00  8.6761572276962365e-02  1.7352370012355897e-01  1.2692771322105516e+00  2.9581351517292709e-01  1.4893436588653058e-01  1.2972275029613833e+00  5.4800697162255918e-01  7.7261716593918950e-02  9.1569125940965557e-02  2.2631935535959558e-01  7.0655160452214538e-01  1.2772370208629327e-01  4.6562659431113075e-02  4.1571074855707157e-01  2.5064240594545633e-02  2.5342186378711346e-02  2.4476097526861303e-02  2.5422844986084860e-02  8.8525353000718496e-02  5.2895431406954810e-02  7.3164301131249707e-02  5.8182825561367731e-02  1.2479594704494937e-01  6.9340100278164463e-01  6.2183980635339281e-02  7.6008792799661093e-02  2.3155707284391483e-01  8.2560170462814375e-01  6.5515998084498772e-01  8.5143884562809735e-01  7.1528991313942428e-02  8.2717131617545814e-01  1.3989054763623052e-01  6.8424183080556844e-01  1.2977789885752424e+00  1.4340381926224427e-01  5.3484759183618236e-01  2.5666336174888754e-01  1.3137861198016634e-01  3.4896292543665919e-01  8.0643687050523916e-01  1.1777952458279977e+00  3.6394290971848806e-02  -1.6850015813135683e-02  -1.6691366510294601e-02  -1.8083552678470189e-02  -2.1729417905779948e-02  -1.8083862768360760e-02  -2.2064461639319053e-02  -1.6875992182704223e-02  -1.7771612261868259e-02  -1.6985064483603322e-02  -1.8003245694127510e-02  -2.1893790374393245e-02  -2.1888444725911515e-02  -1.3771633687543054e-02  -1.3168817543124149e-02  -1.4347142627194517e-02  -1.3456302122297478e-02  -1.6893101689307365e-02  -2.1584417124182256e-02  -2.1615782505463681e-02  -1.6739448653815586e-02  -2.4614257161353084e-02  -2.6150753880051308e-02  -1.7303609376078059e-02  -1.7403327240307801e-02  -2.3303270781764904e-02  -2.6104304761848149e-02  -2.6841752163602538e-02  -2.6829120429629177e-02  -2.7297016570048974e-02  -2.7308597628212004e-02  -1.4813539342304645e-02  -1.4471911842311542e-02  -1.4798138524406044e-02  -1.4437367729390443e-02  -1.4531126770837274e-02  -1.4455624704460301e-02  -1.4593787301290998e-02  -2.7265705308454291e-02  -2.7342164852775241e-02  -2.6676374319938571e-02  -2.6001105281468515e-02  -1.5344866268679997e-02  -1.5021947153307758e-02  -1.4902472958596109e-02  -1.4749984740398809e-02  -1.5040586695562026e-02  -1.4761234207018541e-02  -1.5764291842120002e-02  -1.4338128346411870e-02  -2.6042790113291633e-02  -2.5523980481148876e-02  -1.4757942376420526e-02  -1.4384081512300771e-02  -1.4787974958334055e-02  -2.4814347289421508e-02  -2.6193604616370707e-02  -2.6499181111264848e-02  -2.7076875080439735e-02  -2.7255361108674069e-02  -2.7435790602708024e-02  -2.7214806635314077e-02  -2.7319910257023867e-02  -2.7214061732116612e-02  -2.6864139846277231e-02  -2.4677896170865268e-02  -2.6160104780521651e-02  -2.6386082278797258e-02  -2.6968783568688363e-02  -2.6600175946483225e-02  -2.7136181784492161e-02  -2.7327143560128400e-02  -2.7216351180688710e-02  -2.7094830753672115e-02  -2.6777445102531855e-02  -1.9528623880956261e-02  -2.4643508187468740e-02  -2.6187566595682794e-02  -2.6137093036080038e-02  -2.6885892339222398e-02  -2.6865016915106656e-02  -2.7327568525727434e-02  -2.7358210057442659e-02  -2.7314345466777627e-02  -2.7322950118934226e-02  -1.5962364227824054e-02  -1.6621766739793768e-02  -1.8561012574137122e-02  -1.8514521017643365e-02  -2.7054325635189194e-02  -2.6554549772353130e-02  -2.6474620481073761e-02  -2.6595682963376204e-02  -2.6694199248123020e-02  -2.6740061352299869e-02  -1.4382387979040999e-02  -2.6342463177500781e-02  -2.7078742532937398e-02  -2.6525622353008867e-02  -2.6292781519847649e-02  -2.6881032341327892e-02  -2.6966342651907973e-02  -1.9352788974378390e-02  -2.4930095831728526e-02  -2.5109471984626874e-02  -1.2410377086342159e-02  -1.2113517161347204e-02  -1.2346292234670216e-02  -2.4915095591918596e-02  -2.4987073540818808e-02  -2.4399326165244116e-02  -2.4079017003624401e-02  -2.5574126383966760e-02  -2.6231539671106373e-02  -2.5467434924325568e-02  -2.6075702651298296e-02  -2.4783981919764528e-02  -2.5904625870842270e-02  -2.4356305840023452e-02  -2.5099403247551874e-02  -2.3764199111184603e-02  -2.4035813433370121e-02  -2.4959805593984689e-02  -2.5986093034611982e-02  -2.4451836884705400e-02  -2.5070639244115806e-02  -2.3819645041047426e-02  -2.4158628352576060e-02  -2.3177390239114640e-02  -2.3403618129420947e-02  -2.2663485025325978e-02  -2.2915008107390743e-02  -2.2316982617489631e-02  -2.2711598731527123e-02  -2.2203210483787313e-02  -2.2796753551251520e-02  -2.3066552440842644e-02  -2.3267283278408289e-02  -2.2529315612293946e-02  -2.2774943990983065e-02  -2.2174649044795582e-02  -2.2568190061064908e-02  -2.2051143436164780e-02  -2.2656306222121142e-02  -2.4760598933042235e-02  -2.4768228215289199e-02  -2.6642993826879138e-02  -2.6541043249551751e-02  -2.4699779261142286e-02  -2.4534783840666423e-02  -2.2395871728164665e-02  -2.3180980418155708e-02  -2.2716955932748532e-02  -2.3793248787871778e-02  -2.3119083268630755e-02  -2.2246975806554006e-02  -2.3037336830730910e-02  -2.2565454502089379e-02  -2.3657035869268716e-02  -2.2984490367557359e-02  -2.6815557050301680e-02  -2.5402294733960426e-02  -2.5053765510769953e-02  -2.3195293157027563e-02  -2.3877276210543270e-02  -2.3311221835716000e-02  -2.3979924721442079e-02  -2.2382213444089836e-02  -2.2695604400876739e-02  -2.2528660105417399e-02  -2.2879349502198127e-02  -2.2739436736724093e-02  -2.0706589510396417e-02  -2.2855756003696267e-02  -2.4158134720011517e-02  -2.3113440152059819e-02  -2.2302493670784133e-02  -2.0554515615424703e-02  -2.4197518362798445e-02  -2.2776742218063587e-02  -2.4018094342960320e-02  -2.2057530878567762e-02  -2.4159839624491940e-02  -2.2064941537538602e-02  -2.1976427634158892e-02  -2.1717256456835123e-02  -2.3766984003128596e-02  -2.1595918476466820e-02  -2.3707977430630266e-02  -1.8667334293685479e-02  -2.6245378098121868e-02  -9.6291080591848766e-03  -2.5045429131710911e-02  -2.6353418821481633e-02  -2.1536917024459024e-02  -2.1449626546309098e-02  -2.2971649526495216e-02  -2.1643015295604567e-02  -2.5589015132316009e-02  -2.5443605634829641e-02  -2.5142749898569756e-02  -2.6039685069839499e-02  -2.5253570941507632e-02  -2.5586545735309160e-02  -2.4823936322207408e-02  -2.4246667524264267e-02  -2.3753763664550769e-02  -2.5080086908089747e-02  -2.3851398089758193e-02  -2.3166832473104203e-02  -2.2906763764341614e-02  -2.2602663594308174e-02  -2.2344918104487448e-02  -2.2306071469636236e-02  -2.2052925733527174e-02  -2.3176313288126527e-02  -2.3014824026066898e-02  -2.1669392898031169e-02  -2.3701977120403093e-02  -2.3314425485682758e-02  -2.2619440663032505e-02  -1.9056775166874578e-02  -2.2289211739776309e-02  -2.1791381182518502e-02  -2.2154283486748080e-02  -2.1461193407130735e-02  -9.1593420931801554e-03  -9.9279293739638324e-03  -9.4524720623189295e-03  -2.5826506500089719e-02  -2.3937656344254821e-02  -2.6401604153340478e-02  -2.4301081298896514e-02  -2.5528349019997801e-02  -1.9253687160781605e-02  -1.9961981255816906e-02  -2.0145923503014928e-02  -2.3153167289220660e-02  -2.4376823455223073e-02  -2.5213300910302210e-02  -2.4280757941551181e-02  -2.3116205022850247e-02  -2.3312317834293838e-02  -2.3325292786344060e-02  -2.2703439472575859e-02  -2.2624006989293136e-02  -2.2429232747920715e-02  -2.1765885139012967e-02  -2.2264527134559568e-02  -2.1958904132120809e-02  -2.2207076974877182e-02  -2.2201347722752385e-02  -2.2672545010093529e-02  -2.2181749368046112e-02  -2.3238587936431954e-02  -2.2990771941946656e-02  -2.3896510286852753e-02  -2.3573078118768485e-02  -2.4833612083315762e-02  -2.3653718594042535e-02  -2.5465305426938870e-02  -2.3177543642293928e-02  -2.4973779315702230e-02  -2.2625682948778297e-02  -2.3646639506322266e-02  -2.1998258088331134e-02  -2.5628710234148692e-02  -2.5141168644100806e-02  -2.1576710226457737e-02  -2.0184919023321292e-02  -2.2702195451684438e-02  -2.2087946933203793e-02  -2.5674053307973940e-02  -2.1811517107950047e-02  -2.4800677389033344e-02  -2.1154113871616535e-02  -2.0655995862464704e-02  -2.2700436376465721e-02  -2.5604562098891007e-02  -2.0689912511303820e-02  -2.3984543836960557e-02  -2.1343964159870887e-02  -2.0771408579188778e-02  -2.1090203685669977e-02  -2.0757644373895729e-02  -2.3350600081530927e-02  -2.1854481070783180e-02  -2.2253297746477392e-02  -2.1603233513129826e-02  -2.3170533627377150e-02  -2.3940172791653103e-02  -2.0577363784626667e-02  -2.1345317932751715e-02  -1.7223213874276281e-02  -2.0976830835153098e-02  -2.2114805897254571e-02  -2.4618170268245022e-02  -2.2411237911339640e-02  -2.1403122702884546e-02  -1.7193