<?xml version="1.0"?>
<VTKFile type="UnstructuredGrid"  version="0.1"  >
<UnstructuredGrid>
<Piece  NumberOfPoints="1297" NumberOfCells="2496">
<Points>
<DataArray  type="Float64"  NumberOfComponents="3"  format="ascii">0 0 0  0 1 0  1 1 0  1 0 0  1.1 -0.1 0  -0.1 -0.1 0  1.1 1.1 0  -0.1 1.1 0  0.3089055491172841 0.6611243732947794 0  0.3093380932469307 0.3391211638977633 0  0.6908252596785961 0.3387494010343574 0  0.6908449486428324 0.6611910151418702 0  0.5000872150630791 0.5001258021127963 0  0 0.9499999999997918 0  0 0.8999999999995836 0  0 0.8499999999996529 0  0 0.7999999999999998 0  0 0.7500000000003466 0  0 0.7000000000006934 0  0 0.6500000000010401 0  0 0.6000000000013869 0  0 0.5500000000017335 0  0 0.5000000000020587 0  0 0.4500000000018723 0  0 0.4000000000016644 0  0 0.3500000000014564 0  0 0.3000000000012483 0  0 0.2500000000010403 0  0 0.2000000000008322 0  0 0.1500000000006241 0  0 0.100000000000416 0  0 0.05000000000020799 0  0.04999999999989965 0 0  0.09999999999981467 0 0  0.1499999999997036 0 0  0.1999999999995579 0 0  0.2499999999994121 0 0  0.2999999999992664 0 0  0.3499999999991206 0 0  0.3999999999989749 0 0  0.4499999999988292 0 0  0.4999999999986943 0 0  0.5499999999988151 0 0  0.5999999999989468 0 0  0.6499999999990784 0 0  0.69999999999921 0 0  0.7499999999993417 0 0  0.7999999999994734 0 0  0.8499999999996051 0 0  0.8999999999997368 0 0  0.9499999999998684 0 0  1 0.04999999999989965 0  1 0.09999999999981467 0  1 0.1499999999997036 0  1 0.1999999999995579 0  1 0.2499999999994121 0  1 0.2999999999992664 0  1 0.3499999999991206 0  1 0.3999999999989749 0  1 0.4499999999988292 0  1 0.4999999999986943 0  1 0.5499999999988151 0  1 0.5999999999989468 0  1 0.6499999999990784 0  1 0.69999999999921 0  1 0.7499999999993417 0  1 0.7999999999994734 0  1 0.8499999999996051 0  1 0.8999999999997368 0  1 0.9499999999998684 0  0.9499999999997918 1 0  0.8999999999995836 1 0  0.8499999999996529 1 0  0.7999999999999998 1 0  0.7500000000003466 1 0  0.7000000000006934 1 0  0.6500000000010401 1 0  0.6000000000013869 1 0  0.5500000000017335 1 0  0.5000000000020587 1 0  0.4500000000018723 1 0  0.4000000000016644 1 0  0.3500000000014564 1 0  0.3000000000012483 1 0  0.2500000000010403 1 0  0.2000000000008322 1 0  0.1500000000006241 1 0  0.100000000000416 1 0  0.05000000000020799 1 0  -0.1 1.05000000000004 0  -0.1 1.000000000000079 0  -0.1 0.9500000000001624 0  -0.1 0.9000000000003032 0  -0.1 0.850000000000444 0  -0.1 0.8000000000005848 0  -0.1 0.7500000000007256 0  -0.1 0.7000000000008665 0  -0.1 0.6500000000010508 0  -0.1 0.6000000000012352 0  -0.1 0.5500000000014196 0  -0.1 0.500000000001539 0  -0.1 0.4500000000014195 0  -0.1 0.4000000000013 0  -0.1 0.3500000000011588 0  -0.1 0.3000000000010178 0  -0.1 0.2500000000008986 0  -0.1 0.2000000000007579 0  -0.1 0.1500000000006174 0  -0.1 0.1000000000005272 0  -0.1 0.05000000000040083 0  -0.1 2.671196597248127e-13 0  -0.1 -0.0499999999998666 0  -0.0500000000000906 -0.1 0  -1.730560139634463e-13 -0.1 0  0.04999999999975802 -0.1 0  0.09999999999961506 -0.1 0  0.1499999999994613 -0.1 0  0.199999999999302 -0.1 0  0.2499999999991446 -0.1 0  0.2999999999990088 -0.1 0  0.3499999999988296 -0.1 0  0.3999999999986936 -0.1 0  0.4499999999985143 -0.1 0  0.4999999999984002 -0.1 0  0.5499999999985247 -0.1 0  0.5999999999986493 -0.1 0  0.6499999999987955 -0.1 0  0.6999999999989417 -0.1 0  0.7499999999990659 -0.1 0  0.7999999999992116 -0.1 0  0.8499999999993573 -0.1 0  0.8999999999994526 -0.1 0  0.949999999999584 -0.1 0  0.9999999999997226 -0.1 0  1.049999999999861 -0.1 0  1.1 -0.0500000000000906 0  1.1 -1.730560139634463e-13 0  1.1 0.04999999999975802 0  1.1 0.09999999999961506 0  1.1 0.1499999999994613 0  1.1 0.199999999999302 0  1.1 0.2499999999991446 0  1.1 0.2999999999990088 0  1.1 0.3499999999988296 0  1.1 0.3999999999986936 0  1.1 0.4499999999985143 0  1.1 0.4999999999984002 0  1.1 0.5499999999985247 0  1.1 0.5999999999986493 0  1.1 0.6499999999987955 0  1.1 0.6999999999989417 0  1.1 0.7499999999990659 0  1.1 0.7999999999992116 0  1.1 0.8499999999993573 0  1.1 0.8999999999994526 0  1.1 0.949999999999584 0  1.1 0.9999999999997226 0  1.1 1.049999999999861 0  1.05000000000004 1.1 0  1.000000000000079 1.1 0  0.9500000000001624 1.1 0  0.9000000000003032 1.1 0  0.850000000000444 1.1 0  0.8000000000005848 1.1 0  0.7500000000007256 1.1 0  0.7000000000008665 1.1 0  0.6500000000010508 1.1 0  0.6000000000012352 1.1 0  0.5500000000014196 1.1 0  0.500000000001539 1.1 0  0.4500000000014195 1.1 0  0.4000000000013 1.1 0  0.3500000000011588 1.1 0  0.3000000000010178 1.1 0  0.2500000000008986 1.1 0  0.2000000000007579 1.1 0  0.1500000000006174 1.1 0  0.1000000000005272 1.1 0  0.05000000000040083 1.1 0  2.671196597248127e-13 1.1 0  -0.0499999999998666 1.1 0  0.2996245856406741 0.6490554899851361 0  0.2892862464966099 0.6324558529279887 0  0.2791151060479796 0.6127971127824177 0  0.2697372981858221 0.5905589420121345 0  0.2619988949005135 0.5674560924107358 0  0.2564599890495727 0.5447122087468694 0  0.2533247925907147 0.522415174656419 0  0.2523334970203931 0.5003851916033363 0  0.2535008818630294 0.4781462814635751 0  0.2569471556785836 0.4555186366878148 0  0.2626527329129146 0.4324945591601363 0  0.2703490086076533 0.4093591147050165 0  0.2795581446484933 0.3872751739937575 0  0.2897033508037941 0.3676469788025458 0  0.3000851010110446 0.3511204802685648 0  0.31978034874045 0.3280083477473874 0  0.3339804537873836 0.3152541283140095 0  0.3513483881719425 0.3018917506104982 0  0.3709811094707462 0.2888852765407357 0  0.391570395646983 0.2774657061710681 0  0.412332371170915 0.2681291272054486 0  0.4334259715207569 0.2608455243235073 0  0.4549546189164179 0.2555493397159109 0  0.4771969765814447 0.2521354360564945 0  0.4998850364745308 0.25082155020231 0  0.5225119978360248 0.2517839928951047 0  0.5446823900393887 0.2550545881021019 0  0.5658724696794321 0.26045204769691 0  0.5868721433731164 0.2676465384028667 0  0.6075761828003305 0.2770022164383433 0  0.628317479915294 0.2884487067534726 0  0.6483954175586855 0.3014656807580531 0  0.666042968115978 0.3147731649114688 0  0.680316264089064 0.3275360783575876 0  0.7003029237112635 0.3510572468498725 0  0.7107538441407096 0.3675636132867506 0  0.7210707410545159 0.387357174621383 0  0.7304147354556503 0.4094186442145087 0  0.7380897843424341 0.432435351214107 0  0.7436823560164194 0.4553949890695997 0  0.7470505612958548 0.4779634679151468 0  0.7482530735462435 0.5003612847858246 0  0.7472584109567179 0.5228562632246465 0  0.7438796524063553 0.5454620700473393 0  0.7382166159062541 0.5684314725541513 0  0.7304225138466168 0.5914419366323633 0  0.7210108153838375 0.6131982547764177 0  0.7107462941327806 0.6326810694387166 0  0.7003201050118557 0.6489723700054304 0  0.6802935499374576 0.6723313962267441 0  0.6658888294182558 0.6850895539057336 0  0.6481692157009692 0.6985141168235789 0  0.6281965327343773 0.7116609367054294 0  0.607663768307342 0.7233998331424999 0  0.5871461268282148 0.7331139597572808 0  0.5661514827859707 0.740581431160438 0  0.54481405225261 0.7460852367648075 0  0.5225701223486999 0.7494361896112719 0  0.4999208685507395 0.7505461952824821 0  0.4773256621282932 0.7493825181008658 0  0.4552550081974683 0.7459868161674007 0  0.4338236879621628 0.7405093592189825 0  0.4130287126797961 0.7329211289795504 0  0.3924109406525729 0.7232409089679496 0  0.3712594878402848 0.7114417417995293 0  0.3510917472124638 0.6982765037637364 0  0.3335619046296959 0.6849599175962985 0  0.3193390123888803 0.6722470173170677 0  0.3814368520986522 0.3107177997968499 0  0.2823662976930734 0.4428932368569057 0  0.3816736493542023 0.6896400448173063 0  0.281952995517967 0.5572908358376892 0  0.7141969842156648 0.5803565789934794 0  0.5973787953183589 0.6995505968618509 0  0.6172075236027899 0.3095563132715323 0  0.7196729146375216 0.4422133989119884 0  0.7250973175764324 0.5112477716660999 0  0.5544699200619905 0.2876437828813899 0  0.4452367829333552 0.2906056098849971 0  0.4443576665089017 0.7105265294392302 0  0.533478516781654 0.7150313773039482 0  0.2761930489990775 0.4888534965243414 0  0.293884616038941 0.3971641555106116 0  0.4886395962239047 0.288460065691082 0  0.298372141194385 0.6014818189438798 0  0.7008344979300001 0.3951085924136991 0  0.4888265492374766 0.7168359011005476 0  0.6382749489068047 0.6803560251268335 0  0.3422802880207551 0.3326889680706456 0  0.6579684495767281 0.3338276856288069 0  0.3425513684667117 0.6700065352175569 0  0.6957395753197 0.6256985065853083 0  0.3108671120826509 0.3569368395699882 0  0.3121408296643531 0.6423969800174857 0  0.6742982597786891 0.6607027582895876 0  0.6898034904472424 0.3564228315205165 0  0.361421453093229 0.6799153877314921 0  0.3704589110159217 0.6609236548909049 0  0.3908378391601687 0.6673460263054176 0  0.3779203100782846 0.6399140456418716 0  0.3996442827794477 0.6434971421420688 0  0.3851790081346384 0.6147667170769228 0  0.4126783213419254 0.6158201292568155 0  0.3950674872799519 0.5844767581288529 0  0.3590553778323757 0.6108684794713024 0  0.429705520160429 0.5849900290066193 0  0.4075055153891848 0.5491406941229684 0  0.3676794583890548 0.5538151481115137 0  0.3833111392070581 0.5145662515259058 0  0.3457208196850327 0.5163910693505795 0  0.3588904697828645 0.48175817467211 0  0.3985830726292718 0.4760636249734612 0  0.3786498271024183 0.4432624602424395 0  0.4154253749537506 0.4372415690048954 0  0.396670036544462 0.4066454809577381 0  0.4304697178522909 0.3956646823996676 0  0.3629794709808749 0.4089860378343585 0  0.4070536692682543 0.3731237925803656 0  0.439941638255139 0.6168968744542531 0  0.4653419877699967 0.5919390103444789 0  0.4839548945050291 0.6159818232675142 0  0.5021999716739891 0.5931355529229787 0  0.5195862564188194 0.6163829926698495 0  0.5381693086854005 0.5939215930053932 0  0.5550532365451328 0.6183919855559834 0  0.5741550718642522 0.5955554581044028 0  0.5907969286905107 0.6235619761364113 0  0.609846956284692 0.5899670893933706 0  0.5957438154964724 0
[...]
<PointData  Scalars="state"> 
<DataArray  type="Float64"  Name="state"  format="ascii">0.0000000000000000e+00  0.0000000000000000e+00  0.0000000000000000e+00  0.0000000000000000e+00  0.0000000000000000e+00  0.0000000000000000e+00  0.0000000000000000e+00  0.0000000000000000e+00  -1.7272039730491486e-02  -1.7328451788637574e-02  -1.7435628507195707e-02  -1.7291739441857159e-02  1.3458476552205336e+00  0.0000000000000000e+00  0.0000000000000000e+00  0.0000000000000000e+00  0.0000000000000000e+00  0.0000000000000000e+00  0.0000000000000000e+00  0.0000000000000000e+00  0.0000000000000000e+00  0.0000000000000000e+00  0.0000000000000000e+00  0.0000000000000000e+00  0.0000000000000000e+00  0.0000000000000000e+00  0.0000000000000000e+00  0.0000000000000000e+00  0.0000000000000000e+00  0.0000000000000000e+00  0.0000000000000000e+00  0.0000000000000000e+00  0.0000000000000000e+00  0.0000000000000000e+00  0.0000000000000000e+00  0.0000000000000000e+00  0.0000000000000000e+00  0.0000000000000000e+00  0.0000000000000000e+00  0.0000000000000000e+00  0.0000000000000000e+00  0.0000000000000000e+00  0.0000000000000000e+00  0.0000000000000000e+00  0.0000000000000000e+00  0.0000000000000000e+00  0.0000000000000000e+00  0.0000000000000000e+00  0.0000000000000000e+00  0.0000000000000000e+00  0.0000000000000000e+00  0.0000000000000000e+00  0.0000000000000000e+00  0.0000000000000000e+00  0.0000000000000000e+00  0.0000000000000000e+00  0.0000000000000000e+00  0.0000000000000000e+00  0.0000000000000000e+00  0.0000000000000000e+00  0.0000000000000000e+00  0.0000000000000000e+00  0.0000000000000000e+00  0.0000000000000000e+00  0.0000000000000000e+00  0.0000000000000000e+00  0.0000000000000000e+00  0.0000000000000000e+00  0.0000000000000000e+00  0.0000000000000000e+00  0.0000000000000000e+00  0.0000000000000000e+00  0.0000000000000000e+00  0.0000000000000000e+00  0.0000000000000000e+00  0.0000000000000000e+00  0.0000000000000000e+00  0.0000000000000000e+00  0.0000000000000000e+00  0.0000000000000000e+00  0.0000000000000000e+00  0.0000000000000000e+00  0.0000000000000000e+00  0.0000000000000000e+00  0.0000000000000000e+00  0.0000000000000000e+00  0.0000000000000000e+00  0.0000000000000000e+00  0.0000000000000000e+00  0.0000000000000000e+00  0.0000000000000000e+00  0.0000000000000000e+00  0.0000000000000000e+00  0.0000000000000000e+00  0.0000000000000000e+00  0.0000000000000000e+00  0.0000000000000000e+00  0.0000000000000000e+00  0.0000000000000000e+00  0.0000000000000000e+00  0.0000000000000000e+00  0.0000000000000000e+00  0.0000000000000000e+00  0.0000000000000000e+00  0.0000000000000000e+00  0.0000000000000000e+00  0.0000000000000000e+00  0.0000000000000000e+00  0.0000000000000000e+00  0.0000000000000000e+00  0.0000000000000000e+00  0.0000000000000000e+00  0.0000000000000000e+00  0.0000000000000000e+00  0.0000000000000000e+00  0.0000000000000000e+00  0.0000000000000000e+00  0.0000000000000000e+00  0.0000000000000000e+00  0.0000000000000000e+00  0.0000000000000000e+00  0.0000000000000000e+00  0.0000000000000000e+00  0.0000000000000000e+00  0.0000000000000000e+00  0.0000000000000000e+00  0.0000000000000000e+00  0.0000000000000000e+00  0.0000000000000000e+00  0.0000000000000000e+00  0.0000000000000000e+00  0.0000000000000000e+00  0.0000000000000000e+00  0.0000000000000000e+00  0.0000000000000000e+00  0.0000000000000000e+00  0.0000000000000000e+00  0.0000000000000000e+00  0.0000000000000000e+00  0.0000000000000000e+00  0.0000000000000000e+00  0.0000000000000000e+00  0.0000000000000000e+00  0.0000000000000000e+00  0.0000000000000000e+00  0.0000000000000000e+00  0.0000000000000000e+00  0.0000000000000000e+00  0.0000000000000000e+00  0.0000000000000000e+00  0.0000000000000000e+00  0.0000000000000000e+00  0.0000000000000000e+00  0.0000000000000000e+00  0.0000000000000000e+00  0.0000000000000000e+00  0.0000000000000000e+00  0.0000000000000000e+00  0.0000000000000000e+00  0.0000000000000000e+00  0.0000000000000000e+00  0.0000000000000000e+00  0.0000000000000000e+00  0.0000000000000000e+00  0.0000000000000000e+00  0.0000000000000000e+00  0.0000000000000000e+00  0.0000000000000000e+00  0.0000000000000000e+00  0.0000000000000000e+00  0.0000000000000000e+00  0.0000000000000000e+00  0.0000000000000000e+00  0.0000000000000000e+00  0.0000000000000000e+00  0.0000000000000000e+00  0.0000000000000000e+00  0.0000000000000000e+00  0.0000000000000000e+00  0.0000000000000000e+00  0.0000000000000000e+00  -1.4364759740548148e-02  -1.3419557084532631e-02  -1.1242070599497384e-02  -1.0138111661572236e-02  -9.5297290450596928e-03  -9.1992853618772692e-03  -8.8504893768715683e-03  -9.4969165326976406e-03  -8.1363040816185769e-03  -8.6187953865650407e-03  -9.8999801324888004e-03  -1.0657935113583851e-02  -1.1069984182345819e-02  -1.2855247936560951e-02  -1.3955964031018732e-02  -1.4631769405719339e-02  -1.2914031571516162e-02  -1.1082001429399005e-02  -9.6883714003227310e-03  -9.2455124364349706e-03  -7.6313978183804370e-03  -7.2178460143624860e-03  -7.4382867883305715e-03  -6.3442884273511822e-03  -6.9162362695665749e-03  -7.0440410656797065e-03  -6.8433723793642348e-03  -8.2594896721297582e-03  -7.1439685155709519e-03  -9.7487986458654058e-03  -1.0577071607811737e-02  -1.1340410267193107e-02  -1.2824536074578828e-02  -1.4668069098815410e-02  -1.4696360086556042e-02  -1.3152886665469142e-02  -1.1354669811220977e-02  -1.0029975538131102e-02  -9.6162185206345868e-03  -9.2796994837436413e-03  -9.0941326836546463e-03  -8.3970429609841416e-03  -7.9887189239181942e-03  -8.7254625302570221e-03  -9.0906706475314802e-03  -9.4584222312665660e-03  -1.1320164457654061e-02  -1.3020197620856554e-02  -1.4591352118971812e-02  -1.4392978623106435e-02  -1.2833276738212628e-02  -1.1562545532977453e-02  -1.0614647067659818e-02  -9.7858762296114104e-03  -7.6375418603312484e-03  -8.6099936409144272e-03  -6.6342798300383565e-03  -6.4568008230801825e-03  -6.5527070653043562e-03  -6.7643752148096713e-03  -7.3021387483153070e-03  -6.6602011473204615e-03  -7.9608440226027182e-03  -9.3503835580243267e-03  -9.6932304424939674e-03  -1.0998992757217394e-02  -1.2911389926535439e-02  -1.4580312625479652e-02  5.3452876084617053e-02  5.1048704914554474e-02  5.3959363426336053e-02  5.0734969997998550e-02  4.7463947204420591e-02  5.6585178110021075e-02  5.3390695322373151e-02  4.9234991315033741e-02  4.9185811149659246e-02  6.1345270897877967e-02  6.4579456585845671e-02  6.4914722690511226e-02  6.3866379647646132e-02  5.0881981990422667e-02  4.3960991323047940e-02  7.4724936547841903e-02  5.0203167431560322e-02  4.8993600898763472e-02  6.7654681531085920e-02  4.8515097112434097e-02  4.3937418370107895e-02  4.5557408898659980e-02  4.1991322893499348e-02  4.2091952109467694e-02  3.2450944371780921e-02  3.5411424428542969e-02  3.3637486099833760e-02  3.2975754988218725e-02  4.8216765507194469e-02  8.1807868866083905e-02  1.0534009990033595e-01  1.7385948600841250e-01  2.5183284043753812e-01  4.5437738251742343e-01  7.2746316687948143e-01  7.9988783579684963e-01  2.1516944160301132e-01  9.3801508112843679e-01  9.7592331594026471e-01  7.4593415270059160e-01  9.0075198608893037e-01  5.6312493957234655e-01  7.4933109542538412e-01  9.7528788982208925e-01  8.1585064919450012e-01  9.6522857892018021e-01  7.7911759921892410e-01  8.5467951506119777e-01  4.1970188675258896e-01  5.4045286368451673e-01  8.3390112353045009e-01  1.0252867360298970e+00  9.0062708598163188e-01  1.0687827332195616e+00  8.7826601569793128e-01  1.0084835580746141e+00  8.2227110518772795e-01  8.7530217128382903e-01  6.0926979594647357e-01  7.6508134909754633e-01  9.3272284448720455e-01  7.5493547983687703e-01  9.0992452381120881e-01  3.5895563864273572e-01  2.6345453820537545e-01  2.9651282202648926e-01  4.5242341512696627e-01  2.5286063724727015e-01  1.4467999458479142e-01  6.5844586814050243e-01  9.0376653500146775e-01  1.2417874549116044e-01  2.0477572850206988e-01  5.6123155166930760e-01  4.2079481420263126e-01  6.6749720638756160e-01  9.5227249896656374e-01  6.1654583223125770e-01  8.9420812105601410e-01  1.1186192934508681e+00  9.4391573009572649e-01  7.7322340581338644e-01  7.7938846578452703e-01  9.9571305031403634e-01  7.8047946840405835e-01  4.3865301105648985e-01  3.5278119494019711e-01  6.0615907193805529e-01  1.7146529022620730e-01  1.4077707775984766e-01  9.8619798928497926e-02  1.0318498169488238e-01  1.1366593158357083e+00  1.2751072056303558e-01  1.4908996718308179e-01  1.0536301672493138e-01  1.4537384672513490e-01  8.4991294310106491e-02  8.6811771218463840e-02  1.2210335913359663e-01  5.2931624955129364e-01  1.4026662568935480e-01  7.4724719400086251e-02  2.0060263112113166e-01  3.4936410383525723e-01  1.5878063534696746e-01  1.5047967825351288e-01  2.6023118137147067e-01  1.2443224481013569e-01  9.9179549141929696e-02  9.0030940950667021e-02  1.2719781143027961e-01  8.8553610470764529e-02  1.3729180374973587e-01  6.4775708449635594e-02  2.8174907365531282e-01  1.2170428407638094e+00  7.8428335778145092e-02  1.1998027791570294e+00  5.9647909419691381e-01  1.5866933927041144e-01  4.9388296433553475e-01  1.6620727446781272e-01  8.8171304574452811e-02  7.7055369497402285e-02  1.3879853412437593e-01  3.5587087647887500e-01  1.8802767736959602e-01  1.0308373291036035e-01  1.0142418923204461e+00  6.3107227024579535e-02  5.2551035377279516e-02  2.9835198700917431e-01  1.4939060877152974e-01  1.6092264920273935e-01  2.8694392389870099e-01  1.9048034207179648e-01  9.8077496548935522e-02  1.4754594642784996e-01  1.0379714602211737e-01  7.4157145297953267e-02  6.4725073401310826e-02  4.3319611048096708e-02  4.8878442484742032e-02  8.7411842524955707e-02  5.9210470651008033e-02  6.3924228407563927e-02  6.6280338203129160e-02  4.0568625482965782e-02  4.0275368553834713e-02  6.2645341254706291e-02  1.3377179100071052e-01  3.8682804456493092e-01  4.9358167154361240e-02  5.8222998953354567e-02  6.7904058379280791e-02  4.8114169266382838e-02  7.1290652249044087e-02  6.7145103004007375e-02  5.5409257076898026e-02  4.1923135225027393e-02  5.7582521573433347e-02  6.2945695489068310e-02  4.9413368070315322e-02  7.5396503834476228e-02  6.0470711662632189e-02  1.1310509052081791e-01  6.3334605548955397e-02  5.2447389293259795e-02  4.2711917055711729e-02  4.2130038529497232e-02  7.4371890318929532e-02  2.3213384636489801e-01  6.2995080858700328e-02  5.7551658006199519e-02  8.2192052630766441e-02  3.2932074062133214e-02  3.3280419316090756e-02  3.2452109873828461e-02  3.3671053528146165e-02  5.1306012057636421e-02  1.1028466556490746e+00  1.2653366204805347e+00  9.4646675243387282e-02  4.9949964600609000e-02  4.6533568296293147e-02  5.5143769936439921e-02  4.0748263935569733e-02  6.2076003228775038e-02  7.7469834213836783e-02  1.7960285320952835e-01  2.0528188190394489e-01  6.5571749457500134e-02  1.8082483490903900e-01  1.1520065855647506e+00  1.1752053866164416e+00  8.3003958677164347e-01  1.2524683542421719e-01  7.8686525310891889e-02  1.5250804337634530e-01  1.1868762820687331e-01  1.5077296430869036e-01  4.8928263623367406e-02  4.7851769701346331e-02  1.1411274246085272e+00  5.2560919815273173e-02  1.3278442456372688e-01  1.1226180345986778e-01  5.2088888109777642e-01  6.4986867404375218e-02  4.9032357945371735e-01  8.4680262049281418e-01  4.6930341442767323e-02  1.2881054721090319e+00  5.3988007002493621e-01  3.6087476313030900e-02  4.1286639258492352e-01  1.3253932685664235e-01  1.1822077768877880e-01  1.1409226597774875e+00  4.9149294639495585e-02  9.4453591804029916e-02  1.4098768158492114e-01  1.3022839963496455e+00  8.3296452076048938e-02  1.6204158048181033e-01  1.2683167811125848e+00  3.1780256654486572e-01  1.5647937129705244e-01  1.2961357837314649e+00  5.7829542514518373e-01  7.2574502194089313e-02  8.4039543451485121e-02  2.1352616819732173e-01  7.2520972100359216e-01  1.2833724008520833e-01  4.1235114240868190e-02  4.4968442964359850e-01  3.4986053733559203e-02  3.5216724643696240e-02  3.4242339130119377e-02  3.5634896777320249e-02  8.6077704993049453e-02  5.6074112543470153e-02  6.8470056258031126e-02  5.6081850922215806e-02  1.2169632850369158e-01  7.1165866287731250e-01  6.7555578879102240e-02  7.6648905231591347e-02  2.0086526442466929e-01  8.2376247206466835e-01  6.8616841871417744e-01  8.4330212743407285e-01  6.6862931660445477e-02  8.2054252214482293e-01  1.3092570090086464e-01  7.2008757250235778e-01  1.2962109317519979e+00  1.3487398667706121e-01  5.6404746823297447e-01  2.5064975892148400e-01  1.3791679371291771e-01  4.1493315304273976e-01  8.0536049279672839e-01  1.1785985582758438e+00  4.2977810555454805e-02  -1.7855975476920187e-02  -1.7683341981929144e-02  -1.9468577592372624e-02  -2.1743995294103598e-02  -1.9540099683017918e-02  -2.2103124540532777e-02  -1.7919742460701847e-02  -1.9292262273465956e-02  -1.7941985755530458e-02  -1.9443575586305956e-02  -2.1887979751113323e-02  -2.1874882478745281e-02  -1.3875632118314680e-02  -1.3258379576873570e-02  -1.4459337506126860e-02  -1.3556443226037405e-02  -1.8833603140755131e-02  -2.1591189992806625e-02  -2.1667686133285673e-02  -1.8689078529481717e-02  -2.4388053685411460e-02  -2.6376780602785917e-02  -1.9062178306732153e-02  -1.9124628886490042e-02  -2.2974745214434253e-02  -2.6143828204270483e-02  -2.6981075638498976e-02  -2.6820231659508437e-02  -2.7695028787334708e-02  -2.7650446910054773e-02  -1.4947603992575038e-02  -1.4596027359255586e-02  -1.4928911330984946e-02  -1.4569952034554556e-02  -1.4678367850454448e-02  -1.4600238148431111e-02  -1.4737290186919537e-02  -2.7654191094714470e-02  -2.7737108979913116e-02  -2.7058532732312051e-02  -2.6294217755286193e-02  -1.5580410209272559e-02  -1.5222684778616302e-02  -1.5095895062723566e-02  -1.4975115259770211e-02  -1.5274682798436967e-02  -1.4992630723162204e-02  -1.5990938374169407e-02  -1.4469054598159984e-02  -2.6506076515627419e-02  -2.6006422516194359e-02  -1.4896855990432925e-02  -1.4513844830514589e-02  -1.4916763178339797e-02  -2.4543800127477835e-02  -2.6409581094525885e-02  -2.6491485287899255e-02  -2.7179057708067621e-02  -2.7552748093661959e-02  -2.7823031251595107e-02  -2.7563408360880191e-02  -2.7688672872621795e-02  -2.7596595512133958e-02  -2.7234669239176824e-02  -2.4407066480935248e-02  -2.6385849748291657e-02  -2.6400954841737542e-02  -2.7100065826122819e-02  -2.6609445781594389e-02  -2.7451997087482308e-02  -2.7737520889747815e-02  -2.7611338082640123e-02  -2.7501947589044919e-02  -2.7169648577164539e-02  -2.0203920328345139e-02  -2.4444022172196850e-02  -2.6417653843890831e-02  -2.6185113281623745e-02  -2.7039354494307572e-02  -2.6864976228151399e-02  -2.7727751082657730e-02  -2.7705256430218646e-02  -2.7708872480587846e-02  -2.7715745127328998e-02  -1.8116959803022328e-02  -1.8695715604192042e-02  -1.9842055086332917e-02  -1.9857540722185960e-02  -2.7480609271909574e-02  -2.6934477400384328e-02  -2.6860859708277854e-02  -2.6978141325313159e-02  -2.7047983348897384e-02  -2.7108496274606372e-02  -1.4506115348935724e-02  -2.6714638245899126e-02  -2.7479608163076204e-02  -2.6904283196081760e-02  -2.6660599863979954e-02  -2.7272798809837351e-02  -2.7367516142425368e-02  -2.0210845171523124e-02  -2.5278859752658721e-02  -2.5434842264567832e-02  -1.2495512931144941e-02  -1.2193977051717968e-02  -1.2425506543602917e-02  -2.5245086932166611e-02  -2.5341265218541794e-02  -2.4818826993587714e-02  -2.4539735912938534e-02  -2.5931028259368754e-02  -2.6610125062431250e-02  -2.5821489185921302e-02  -2.6454896446721617e-02  -2.5133455394030339e-02  -2.6296943594592847e-02  -2.4705320013644679e-02  -2.5510747739380071e-02  -2.4108048206850842e-02  -2.4448674899743238e-02  -2.5287793435141627e-02  -2.6346466033150558e-02  -2.4779131927671363e-02  -2.5448036829568241e-02  -2.4140585324708322e-02  -2.4545696151757498e-02  -2.3484198981833668e-02  -2.3794548638285288e-02  -2.2954003360451808e-02  -2.3291530137208662e-02  -2.2596746520165984e-02  -2.3073892766428475e-02  -2.2480427210092507e-02  -2.3160231317315219e-02  -2.3392928785564631e-02  -2.3676863114935557e-02  -2.2836268174069758e-02  -2.3167565786154018e-02  -2.2467492398124605e-02  -2.2943581597424274e-02  -2.2337695744643768e-02  -2.3029793953936457e-02  -2.5107232872661336e-02  -2.5133035700133026e-02  -2.6686033801000965e-02  -2.6587506624162340e-02  -2.5044551794612041e-02  -2.4890878078154422e-02  -2.2680964861844437e-02  -2.3553461118718644e-02  -2.3015558765213044e-02  -2.4163310773460150e-02  -2.3431215109880263e-02  -2.2538337649538297e-02  -2.3416013720230996e-02  -2.2867529679317447e-02  -2.4029959880774870e-02  -2.3300757560374159e-02  -2.7222946372215947e-02  -2.5795885502665424e-02  -2.5454677025022007e-02  -2.3759655616259302e-02  -2.4451001681667570e-02  -2.3860913637925845e-02  -2.4539902981167976e-02  -2.2887475220789308e-02  -2.2987883865742232e-02  -2.3010418063180070e-02  -2.3151046519257323e-02  -2.3289691384423904e-02  -2.0904753786098469e-02  -2.3396933830136555e-02  -2.4482237314305013e-02  -2.3409121393941360e-02  -2.2588672681103299e-02  -2.0762574202247825e-02  -2.4524990977917095e-02  -2.3065224176023424e-02  -2.4634292913764493e-02  -2.2335625923447754e-02  -2.4757669586960435e-02  -2.2460515383819747e-02  -2.2353855619585965e-02  -2.2119415779676493e-02  -2.4273195993365158e-02  -2.1876282346572965e-02  -2.4056193907561706e-02  -1.8869599617696169e-02  -2.6634120707464043e-02  -9.6798766715886393e-03  -2.5390204389352470e-02  -2.6733129413652790e-02  -2.1791861971898339e-02  -2.1873366706967393e-02  -2.3506503956725155e-02  -2.1877910784118576e-02  -2.5670897047875611e-02  -2.5540717930447727e-02  -2.5301605746764492e-02  -2.6328406172551742e-02  -2.5598522350312059e-02  -2.6075067784217053e-02  -2.5336336368805296e-02  -2.4699019207825249e-02  -2.4239177044305067e-02  -2.5513897526833026e-02  -2.4484507975337171e-02  -2.3683153388026700e-02  -2.3678255668259467e-02  -2.3156366852441403e-02  -2.3207934814411014e-02  -2.2894862359132042e-02  -2.2982980791270098e-02  -2.3521494029102086e-02  -2.3337825468674189e-02  -2.1946434925173904e-02  -2.4043119308443821e-02  -2.4032338276307321e-02  -2.3451156158044804e-02  -1.9263433775410271e-02  -2.2951911406454608e-02  -2.2060501081018386e-02  -2.2431878073948919e-02  -2.1923072735546893e-02  -9.2053251133515472e-03  -9.9841455421586303e-03  -9.4991940086630051e-03  -2.5999067305133867e-02  -2.3313305274492675e-02  -2.6846131408463498e-02  -2.4700919646962589e-02  -2.5998476800318561e-02  -1.9518734028677195e-02  -2.0198770085257851e-02  -2.0419178033722663e-02  -2.3561303837580400e-02  -2.4834849593266182e-02  -2.5680618469553905e-02  -2.4823358314931834e-02  -2.3574737657516425e-02  -2.3853648398186839e-02  -2.4050823764309753e-02  -2.3506980332653481e-02  -2.3141732597881635e-02  -2.3129099094101276e-02  -2.2253834009026134e-02  -2.2860404482885788e-02  -2.2927528535794290e-02  -2.3055754794119525e-02  -2.2720352723559968e-02  -2.3375956378795235e-02  -2.2657678515813271e-02  -2.3766523600423591e-02  -2.3787504153995904e-02  -2.4480448865542650e-02  -2.4044266071404787e-02  -2.5329596467641755e-02  -2.4075390539428771e-02  -2.5912840761684330e-02  -2.3568564212847171e-02  -2.5366025162024252e-02  -2.3328028547874205e-02  -2.4290379369172544e-02  -2.2673735302292664e-02  -2.6051603811254175e-02  -2.5602562805586763e-02  -2.2000032514915748e-02  -2.0538224980511867e-02  -2.3385842514022533e-02  -2.2742914758967482e-02  -2.5956149305939938e-02  -2.2816827903675611e-02  -2.5302109397908681e-02  -2.1588957902169883e-02  -2.1513651523187578e-02  -2.3523769857768061e-02  -2.5948558073049011e-02  -2.1035252421203732e-02  -2.4347923766603368e-02  -2.2439505088737995e-02  -2.0990240502902234e-02  -2.1324901665261981e-02  -2.1577462184400518e-02  -2.4006213143278988e-02  -2.2186772494934802e-02  -2.3168982164360093e-02  -2.2646247587118237e-02  -2.3889396033215913e-02  -2.4561328427643032e-02  -2.0796000722959854e-02  -2.1585595341429328e-02  -1.7512747363972458e-02  -2.2135826512443300e-02  -2.3032033402073299e-02  -2.5007295871405856e-02  -2.2786666935822961e-02  -2.1664833359380596e-02  -1.7399