<?xml version="1.0"?>
<VTKFile type="UnstructuredGrid"  version="0.1"  >
<UnstructuredGrid>
<Piece  NumberOfPoints="1297" NumberOfCells="2496">
<Points>
<DataArray  type="Float64"  NumberOfComponents="3"  format="ascii">0 0 0  0 1 0  1 1 0  1 0 0  1.1 -0.1 0  -0.1 -0.1 0  1.1 1.1 0  -0.1 1.1 0  0.3022404848970974 0.6669133891877015 0  0.3028733549354234 0.333628270230448 0  0.6974919295988243 0.3330434324160629 0  0.6974764031922668 0.6669866474044739 0  0.5000901283684742 0.5001449105920587 0  0 0.9499999999997918 0  0 0.8999999999995836 0  0 0.8499999999996529 0  0 0.7999999999999998 0  0 0.7500000000003466 0  0 0.7000000000006934 0  0 0.6500000000010401 0  0 0.6000000000013869 0  0 0.5500000000017335 0  0 0.5000000000020587 0  0 0.4500000000018723 0  0 0.4000000000016644 0  0 0.3500000000014564 0  0 0.3000000000012483 0  0 0.2500000000010403 0  0 0.2000000000008322 0  0 0.1500000000006241 0  0 0.100000000000416 0  0 0.05000000000020799 0  0.04999999999989965 0 0  0.09999999999981467 0 0  0.1499999999997036 0 0  0.1999999999995579 0 0  0.2499999999994121 0 0  0.2999999999992664 0 0  0.3499999999991206 0 0  0.3999999999989749 0 0  0.4499999999988292 0 0  0.4999999999986943 0 0  0.5499999999988151 0 0  0.5999999999989468 0 0  0.6499999999990784 0 0  0.69999999999921 0 0  0.7499999999993417 0 0  0.7999999999994734 0 0  0.8499999999996051 0 0  0.8999999999997368 0 0  0.9499999999998684 0 0  1 0.04999999999989965 0  1 0.09999999999981467 0  1 0.1499999999997036 0  1 0.1999999999995579 0  1 0.2499999999994121 0  1 0.2999999999992664 0  1 0.3499999999991206 0  1 0.3999999999989749 0  1 0.4499999999988292 0  1 0.4999999999986943 0  1 0.5499999999988151 0  1 0.5999999999989468 0  1 0.6499999999990784 0  1 0.69999999999921 0  1 0.7499999999993417 0  1 0.7999999999994734 0  1 0.8499999999996051 0  1 0.8999999999997368 0  1 0.9499999999998684 0  0.9499999999997918 1 0  0.8999999999995836 1 0  0.8499999999996529 1 0  0.7999999999999998 1 0  0.7500000000003466 1 0  0.7000000000006934 1 0  0.6500000000010401 1 0  0.6000000000013869 1 0  0.5500000000017335 1 0  0.5000000000020587 1 0  0.4500000000018723 1 0  0.4000000000016644 1 0  0.3500000000014564 1 0  0.3000000000012483 1 0  0.2500000000010403 1 0  0.2000000000008322 1 0  0.1500000000006241 1 0  0.100000000000416 1 0  0.05000000000020799 1 0  -0.1 1.05000000000004 0  -0.1 1.000000000000079 0  -0.1 0.9500000000001624 0  -0.1 0.9000000000003032 0  -0.1 0.850000000000444 0  -0.1 0.8000000000005848 0  -0.1 0.7500000000007256 0  -0.1 0.7000000000008665 0  -0.1 0.6500000000010508 0  -0.1 0.6000000000012352 0  -0.1 0.5500000000014196 0  -0.1 0.500000000001539 0  -0.1 0.4500000000014195 0  -0.1 0.4000000000013 0  -0.1 0.3500000000011588 0  -0.1 0.3000000000010178 0  -0.1 0.2500000000008986 0  -0.1 0.2000000000007579 0  -0.1 0.1500000000006174 0  -0.1 0.1000000000005272 0  -0.1 0.05000000000040083 0  -0.1 2.671196597248127e-13 0  -0.1 -0.0499999999998666 0  -0.0500000000000906 -0.1 0  -1.730560139634463e-13 -0.1 0  0.04999999999975802 -0.1 0  0.09999999999961506 -0.1 0  0.1499999999994613 -0.1 0  0.199999999999302 -0.1 0  0.2499999999991446 -0.1 0  0.2999999999990088 -0.1 0  0.3499999999988296 -0.1 0  0.3999999999986936 -0.1 0  0.4499999999985143 -0.1 0  0.4999999999984002 -0.1 0  0.5499999999985247 -0.1 0  0.5999999999986493 -0.1 0  0.6499999999987955 -0.1 0  0.6999999999989417 -0.1 0  0.7499999999990659 -0.1 0  0.7999999999992116 -0.1 0  0.8499999999993573 -0.1 0  0.8999999999994526 -0.1 0  0.949999999999584 -0.1 0  0.9999999999997226 -0.1 0  1.049999999999861 -0.1 0  1.1 -0.0500000000000906 0  1.1 -1.730560139634463e-13 0  1.1 0.04999999999975802 0  1.1 0.09999999999961506 0  1.1 0.1499999999994613 0  1.1 0.199999999999302 0  1.1 0.2499999999991446 0  1.1 0.2999999999990088 0  1.1 0.3499999999988296 0  1.1 0.3999999999986936 0  1.1 0.4499999999985143 0  1.1 0.4999999999984002 0  1.1 0.5499999999985247 0  1.1 0.5999999999986493 0  1.1 0.6499999999987955 0  1.1 0.6999999999989417 0  1.1 0.7499999999990659 0  1.1 0.7999999999992116 0  1.1 0.8499999999993573 0  1.1 0.8999999999994526 0  1.1 0.949999999999584 0  1.1 0.9999999999997226 0  1.1 1.049999999999861 0  1.05000000000004 1.1 0  1.000000000000079 1.1 0  0.9500000000001624 1.1 0  0.9000000000003032 1.1 0  0.850000000000444 1.1 0  0.8000000000005848 1.1 0  0.7500000000007256 1.1 0  0.7000000000008665 1.1 0  0.6500000000010508 1.1 0  0.6000000000012352 1.1 0  0.5500000000014196 1.1 0  0.500000000001539 1.1 0  0.4500000000014195 1.1 0  0.4000000000013 1.1 0  0.3500000000011588 1.1 0  0.3000000000010178 1.1 0  0.2500000000008986 1.1 0  0.2000000000007579 1.1 0  0.1500000000006174 1.1 0  0.1000000000005272 1.1 0  0.05000000000040083 1.1 0  2.671196597248127e-13 1.1 0  -0.0499999999998666 1.1 0  0.293907798652397 0.6542528227069204 0  0.2857256934253759 0.6364871074640807 0  0.2781630982158491 0.6155390337150842 0  0.2709414278382352 0.5922874385535897 0  0.2644033783776019 0.5685385354281831 0  0.2592840068042664 0.545393338860897 0  0.2562534895740382 0.5227561303354052 0  0.2553290022642876 0.5004227675671743 0  0.2565436360680279 0.4779472552729365 0  0.259947075280514 0.4551048561713653 0  0.2652387750358547 0.4317454492233033 0  0.2717519916282459 0.4079876775784022 0  0.2788922382823478 0.3849109130991306 0  0.2864551825282186 0.3640041141017182 0  0.2946436345191691 0.3462710653967596 0  0.3142391160363434 0.3236071399821414 0  0.3301422149281031 0.3129871414824709 0  0.3493522354397908 0.3020448303067329 0  0.3703816560019415 0.290714939546416 0  0.3917203068159806 0.27982472242486 0  0.4126956767282638 0.2703211315384264 0  0.4337696623943735 0.2626496087139483 0  0.4551853332706177 0.2569470171642226 0  0.4772905189774678 0.253154740537603 0  0.4998683927870116 0.2516485852147719 0  0.5224335655186079 0.2526614298113811 0  0.5445726590192009 0.2562248499300865 0  0.5657254198107905 0.2620983771826628 0  0.5867735605617007 0.2696715210423218 0  0.6076878462528331 0.2791550862161807 0  0.6291325115345211 0.2899942932248785 0  0.6505516108931255 0.3013267625481095 0  0.6699721040246048 0.3122680658824213 0  0.6859665913003862 0.3229500124033867 0  0.7058980456507343 0.346017415107451 0  0.7141063944646426 0.3637565141105236 0  0.7217689841292168 0.3849023821001654 0  0.7290158878946003 0.4080778584082047 0  0.7355765575231414 0.4317798215696073 0  0.7408079022313135 0.4550904980558166 0  0.744167991028975 0.4778816686311144 0  0.7454352688765453 0.5004692350443335 0  0.7444371529576755 0.5231274061937278 0  0.7409926728877768 0.5459009167842588 0  0.7355941377137659 0.5691656170582725 0  0.7289029166998452 0.5928067413741659 0  0.721701111175778 0.6156646212676663 0  0.7141031201319329 0.6365315515544496 0  0.7058914761350789 0.6541012403315741 0  0.6859630707690709 0.6770024369090077 0  0.6699142121361452 0.6876188177797755 0  0.6504133026948942 0.698604022025305 0  0.6290299164593095 0.7099636914854264 0  0.6076966618040412 0.7209943738366326 0  0.5869188801625186 0.7307816020792368 0  0.5659013843585652 0.7386588995315611 0  0.5446612592546628 0.7447207757182672 0  0.5225018652562134 0.7484909284664399 0  0.4999113347334834 0.7497649312155771 0  0.4773629216858317 0.7484904652955651 0  0.4553285681000464 0.7447458106706251 0  0.4339159725956062 0.7388009419411652 0  0.4130991103118757 0.7307245911440676 0  0.3922644094131956 0.7208814605556259 0  0.3704591841584983 0.7097370769884834 0  0.3489921074967102 0.6983851218913601 0  0.3296462875749736 0.6875317786322659 0  0.3136756915567644 0.6769427481044121 0  0.3805218288721554 0.3114632978083859 0  0.2840947831748024 0.442193664648638 0  0.3805998068143782 0.6890135357767958 0  0.2835417596326243 0.5582515757754583 0  0.7131671006168283 0.5815700773437266 0  0.5978427332086775 0.6983067735233568 0  0.6182443446286821 0.3101600935188477 0  0.7179604679827114 0.4415556973291596 0  0.7229861285450822 0.5114289992004131 0  0.5545666169512277 0.2886932673602191 0  0.4452562178778561 0.2917269508452147 0  0.4442222383467465 0.7094333811815631 0  0.5334860584409152 0.7140571071634682 0  0.2783841997390192 0.4887831817832627 0  0.2934044993756222 0.3952273433389858 0  0.4886716196514708 0.2892732940177326 0  0.2976396855854916 0.6036449657241115 0  0.7016925817967667 0.3930338786964729 0  0.4887939262756854 0.7160246855232169 0  0.6403176754772093 0.6808586497589667 0  0.33914925503908 0.3307045261299366 0  0.6612304635474787 0.3315980387293651 0  0.3393725058469547 0.6721015663019536 0  0.6983292818125649 0.6287831209537096 0  0.3067390144001532 0.3531450561297742 0  0.3079399846110893 0.6463633444487251 0  0.6787839112136161 0.664386089140197 0  0.6941344278754874 0.3524096501005906 0  0.3594372341168245 0.6804471074395106 0  0.3688696267296317 0.6615273738716614 0  0.3898360613415107 0.6672356592005775 0  0.3767750345944239 0.6405003107067496 0  0.3989040571820577 0.6435903291932347 0  0.38455656803983 0.6152024437264461 0  0.412266277005131 0.6159306974399551 0  0.3948105817329793 0.5847931552861321 0  0.3581269746605087 0.6118851403494389 0  0.4295166031176492 0.5850852216722755 0  0.4074444160485109 0.5493303052001938 0  0.3676906566169242 0.5542503567842444 0  0.3834107030050942 0.5146987414289629 0  0.3460754660923921 0.516616927537041 0  0.3591347376058094 0.4816688088526235 0  0.398619790844894 0.476009979116167 0  0.3786281039753582 0.4429962373754736 0  0.4153291757670534 0.4371402076627349 0  0.3963816156665936 0.4064234910233611 0  0.4302427860493437 0.3956650960331568 0  0.3625954931569281 0.4083749739996352 0  0.4065930345937969 0.3730777781753661 0  0.4396706523422114 0.6168585261207177 0  0.4652313282619293 0.5919191869991485 0  0.4838800617252432 0.6158711292244999 0  0.502202188706894 0.593082844332269 0  0.5196605279777121 0.616267636790279 0  0.5382846493696748 0.593891904557447 0  0.5552901256330779 0.6183201052266482 0  0.5743855855087439 0.5956257684167167 0  0.5912723252083496 0.6236465455710992 0  0.6101454150660427 0.5902887068841962 0  0.59582527929
[...]
<PointData  Scalars="state"> 
<DataArray  type="Float64"  Name="state"  format="ascii">0.0000000000000000e+00  0.0000000000000000e+00  0.0000000000000000e+00  0.0000000000000000e+00  0.0000000000000000e+00  0.0000000000000000e+00  0.0000000000000000e+00  0.0000000000000000e+00  -1.9023077444158820e-02  -1.9071871820184234e-02  -1.9142705850263196e-02  -1.9057666608384805e-02  1.3474386319192038e+00  0.0000000000000000e+00  0.0000000000000000e+00  0.0000000000000000e+00  0.0000000000000000e+00  0.0000000000000000e+00  0.0000000000000000e+00  0.0000000000000000e+00  0.0000000000000000e+00  0.0000000000000000e+00  0.0000000000000000e+00  0.0000000000000000e+00  0.0000000000000000e+00  0.0000000000000000e+00  0.0000000000000000e+00  0.0000000000000000e+00  0.0000000000000000e+00  0.0000000000000000e+00  0.0000000000000000e+00  0.0000000000000000e+00  0.0000000000000000e+00  0.0000000000000000e+00  0.0000000000000000e+00  0.0000000000000000e+00  0.0000000000000000e+00  0.0000000000000000e+00  0.0000000000000000e+00  0.0000000000000000e+00  0.0000000000000000e+00  0.0000000000000000e+00  0.0000000000000000e+00  0.0000000000000000e+00  0.0000000000000000e+00  0.0000000000000000e+00  0.0000000000000000e+00  0.0000000000000000e+00  0.0000000000000000e+00  0.0000000000000000e+00  0.0000000000000000e+00  0.0000000000000000e+00  0.0000000000000000e+00  0.0000000000000000e+00  0.0000000000000000e+00  0.0000000000000000e+00  0.0000000000000000e+00  0.0000000000000000e+00  0.0000000000000000e+00  0.0000000000000000e+00  0.0000000000000000e+00  0.0000000000000000e+00  0.0000000000000000e+00  0.0000000000000000e+00  0.0000000000000000e+00  0.0000000000000000e+00  0.0000000000000000e+00  0.0000000000000000e+00  0.0000000000000000e+00  0.0000000000000000e+00  0.0000000000000000e+00  0.0000000000000000e+00  0.0000000000000000e+00  0.0000000000000000e+00  0.0000000000000000e+00  0.0000000000000000e+00  0.0000000000000000e+00  0.0000000000000000e+00  0.0000000000000000e+00  0.0000000000000000e+00  0.0000000000000000e+00  0.0000000000000000e+00  0.0000000000000000e+00  0.0000000000000000e+00  0.0000000000000000e+00  0.0000000000000000e+00  0.0000000000000000e+00  0.0000000000000000e+00  0.0000000000000000e+00  0.0000000000000000e+00  0.0000000000000000e+00  0.0000000000000000e+00  0.0000000000000000e+00  0.0000000000000000e+00  0.0000000000000000e+00  0.0000000000000000e+00  0.0000000000000000e+00  0.0000000000000000e+00  0.0000000000000000e+00  0.0000000000000000e+00  0.0000000000000000e+00  0.0000000000000000e+00  0.0000000000000000e+00  0.0000000000000000e+00  0.0000000000000000e+00  0.0000000000000000e+00  0.0000000000000000e+00  0.0000000000000000e+00  0.0000000000000000e+00  0.0000000000000000e+00  0.0000000000000000e+00  0.0000000000000000e+00  0.0000000000000000e+00  0.0000000000000000e+00  0.0000000000000000e+00  0.0000000000000000e+00  0.0000000000000000e+00  0.0000000000000000e+00  0.0000000000000000e+00  0.0000000000000000e+00  0.0000000000000000e+00  0.0000000000000000e+00  0.0000000000000000e+00  0.0000000000000000e+00  0.0000000000000000e+00  0.0000000000000000e+00  0.0000000000000000e+00  0.0000000000000000e+00  0.0000000000000000e+00  0.0000000000000000e+00  0.0000000000000000e+00  0.0000000000000000e+00  0.0000000000000000e+00  0.0000000000000000e+00  0.0000000000000000e+00  0.0000000000000000e+00  0.0000000000000000e+00  0.0000000000000000e+00  0.0000000000000000e+00  0.0000000000000000e+00  0.0000000000000000e+00  0.0000000000000000e+00  0.0000000000000000e+00  0.0000000000000000e+00  0.0000000000000000e+00  0.0000000000000000e+00  0.0000000000000000e+00  0.0000000000000000e+00  0.0000000000000000e+00  0.0000000000000000e+00  0.0000000000000000e+00  0.0000000000000000e+00  0.0000000000000000e+00  0.0000000000000000e+00  0.0000000000000000e+00  0.0000000000000000e+00  0.0000000000000000e+00  0.0000000000000000e+00  0.0000000000000000e+00  0.0000000000000000e+00  0.0000000000000000e+00  0.0000000000000000e+00  0.0000000000000000e+00  0.0000000000000000e+00  0.0000000000000000e+00  0.0000000000000000e+00  0.0000000000000000e+00  0.0000000000000000e+00  0.0000000000000000e+00  0.0000000000000000e+00  0.0000000000000000e+00  0.0000000000000000e+00  0.0000000000000000e+00  0.0000000000000000e+00  0.0000000000000000e+00  0.0000000000000000e+00  0.0000000000000000e+00  0.0000000000000000e+00  0.0000000000000000e+00  0.0000000000000000e+00  0.0000000000000000e+00  -1.6287418717558007e-02  -1.4546981277533278e-02  -1.1388085329461289e-02  -9.3990423285891453e-03  -8.3826007646927627e-03  -8.0150628027184923e-03  -7.7030486801724606e-03  -8.3659270728181218e-03  -6.9989147508205014e-03  -7.4362997833410469e-03  -8.6447501234858237e-03  -9.8710816808960378e-03  -1.1163151263977903e-02  -1.3899505588515717e-02  -1.5874566810859563e-02  -1.6463501094263467e-02  -1.3902021381846971e-02  -1.0927407459312007e-02  -8.6823435123202387e-03  -8.0466243692457785e-03  -6.6932273323382745e-03  -6.5738873679325061e-03  -7.1082147203973380e-03  -6.1953350890639556e-03  -6.8393541750852490e-03  -6.9059656498751641e-03  -6.5256678799911899e-03  -7.6251243869172045e-03  -6.2540647014245150e-03  -8.5922495488426082e-03  -9.6125092203697797e-03  -1.1182093502795266e-02  -1.3736521371219515e-02  -1.6402257332883724e-02  -1.6554315528076565e-02  -1.4254346223343621e-02  -1.1396871916898366e-02  -9.1767588745884972e-03  -8.3687182884502782e-03  -8.0823053166245388e-03  -8.0517923059847171e-03  -7.4311147640485232e-03  -6.9564653238502108e-03  -7.4829813995584875e-03  -7.8439900116291112e-03  -8.5816224802401850e-03  -1.1378095112537297e-02  -1.4117480965430862e-02  -1.6430222992456691e-02  -1.6272719291910671e-02  -1.3858308478118149e-02  -1.1475484800586862e-02  -9.6048433167018714e-03  -8.5691932224680294e-03  -6.6757050791856724e-03  -7.8927764071631146e-03  -6.2546433070223596e-03  -6.3132379059875334e-03  -6.4892236735580484e-03  -6.6271952770441088e-03  -6.9645885485938499e-03  -6.0598374511106759e-03  -7.0682269655728902e-03  -8.1372555122368115e-03  -8.6182941122869006e-03  -1.0827934490833961e-02  -1.3838200681197694e-02  -1.6378654360056574e-02  5.5939525125529257e-02  5.3616901596546154e-02  5.6542922330918476e-02  5.3035244273616541e-02  4.9927398225587304e-02  5.9433187205908324e-02  5.5901441239455785e-02  5.1658785247515389e-02  5.0668360781696099e-02  6.1926573299099751e-02  6.5833539234997490e-02  6.5674793765771899e-02  6.4019064304469117e-02  5.2566973781394279e-02  4.4242197871330727e-02  7.4376639816945506e-02  5.0377233868485985e-02  4.8941950763327711e-02  6.7222684642961578e-02  4.8689437915984020e-02  4.1456495107829838e-02  4.3000662612956007e-02  3.9815757027380806e-02  3.9466848050950049e-02  2.8400897204110015e-02  3.1262204946450559e-02  2.9403997755368179e-02  2.8816678937744790e-02  4.8625517947195870e-02  8.3325825344179844e-02  1.0900574841064641e-01  1.7835462530231885e-01  2.6115735383429695e-01  5.0417643269077461e-01  7.2725824101270076e-01  7.9222190440076079e-01  2.2837361916709503e-01  9.4263138973100580e-01  9.7947551119003029e-01  7.4198787775550490e-01  9.0830736543645718e-01  5.3749758260434155e-01  7.4155187276623680e-01  9.7744854185385166e-01  8.1276140782782036e-01  9.6693503734842357e-01  7.8068266820146415e-01  8.5785246071327137e-01  4.5847174545142916e-01  5.4520622745279113e-01  8.3609482815356861e-01  1.0263600966109576e+00  9.0107240154080392e-01  1.0673946554779083e+00  8.7856110943577348e-01  1.0099269504330506e+00  8.2864537308858810e-01  8.7574035984270104e-01  6.1658149369043236e-01  7.7742114314071820e-01  9.3336878081238006e-01  7.5103312913950160e-01  9.1565684903736744e-01  3.9115296635939351e-01  2.5907892886220463e-01  2.9237891702565505e-01  4.3704444604061010e-01  2.4677797955123509e-01  1.4320120780744072e-01  6.4457891393600764e-01  9.0807236972131522e-01  1.2721006378676411e-01  2.0298164588587903e-01  5.5013922765515022e-01  4.0446639312022620e-01  6.5877339051402173e-01  9.5263604429206039e-01  6.0902072381029715e-01  8.9725892282322328e-01  1.1180348942094713e+00  9.4668639071551486e-01  7.7437194075142035e-01  7.7833592085313663e-01  9.9896117062826995e-01  7.8064472872203472e-01  4.9012668496619910e-01  3.8900410074783448e-01  6.0107607710199518e-01  1.7415628306166483e-01  1.4271527955512736e-01  9.7569099294345291e-02  1.0292296986544641e-01  1.1367545738817857e+00  1.3059481965590147e-01  1.4811652330999267e-01  1.0887994160117714e-01  1.4398196173232741e-01  8.5350654358183842e-02  8.5017447255079495e-02  1.2055216560032625e-01  5.1531387818922203e-01  1.3695939409317789e-01  7.6216161236110205e-02  1.9385735575006469e-01  3.3772196200160959e-01  1.6343771684513866e-01  1.5216425520669222e-01  2.4776121839051599e-01  1.2641350246152308e-01  1.0011397825067116e-01  8.7589346784319816e-02  1.2805315237777826e-01  9.0872752267067564e-02  1.4098154316757711e-01  6.6358910444711650e-02  2.9313283748085173e-01  1.2194111802158789e+00  8.0267585760388213e-02  1.2011565954631229e+00  5.7283002937183236e-01  1.5388270384222424e-01  4.6500261443788771e-01  1.6486098026072740e-01  8.8589236320960954e-02  7.8045333036044148e-02  1.4064955089966283e-01  3.9887940164621022e-01  1.9240367198003214e-01  1.0372171418766039e-01  1.0124553026863647e+00  5.9944580130661562e-02  4.9867323031321874e-02  3.3527896643758537e-01  1.5091136402936198e-01  1.6500084836813575e-01  2.9681088198868238e-01  1.9147544125159174e-01  1.0173394315798441e-01  1.5159769738015791e-01  1.0173771653431349e-01  7.5789361869577243e-02  6.2301760339313103e-02  3.9447207684018312e-02  4.9254432117911820e-02  8.7865998126100894e-02  6.1067924600269358e-02  6.3932168045824772e-02  6.4179522727963553e-02  3.6863060622802250e-02  3.7874570562738699e-02  6.4537906615021096e-02  1.3532813883752573e-01  3.8061063942303158e-01  4.9438937853592921e-02  6.1081768872169324e-02  6.9793860771441105e-02  4.8781952774860110e-02  7.3264106454143288e-02  6.7590239151773424e-02  5.8011724684884948e-02  3.9589087111319803e-02  5.5721663790642383e-02  6.2783319425309819e-02  5.1626655716735664e-02  7.7788328245446209e-02  6.2483365448212473e-02  1.1593194083872507e-01  6.4111817861027889e-02  5.4862896469673891e-02  4.0229526509849199e-02  3.8042545189903479e-02  7.6056188385730666e-02  2.2456771308581908e-01  6.1022037534793683e-02  6.0329981326484199e-02  8.3429169020779681e-02  2.8847650821330523e-02  2.9225942209809334e-02  2.8316335021085989e-02  2.9540354079037569e-02  5.3592103030986715e-02  1.1042440742039117e+00  1.2668239408429736e+00  9.5416442652223404e-02  5.2204690130630539e-02  4.8604729817295432e-02  5.3392162616985650e-02  3.8280397659149486e-02  6.2129030772796835e-02  7.9290260852679054e-02  1.7499353912766577e-01  2.1015338396096417e-01  6.5222856230008799e-02  1.7737799890975811e-01  1.1503175438321682e+00  1.1781271509894153e+00  8.3327937152476117e-01  1.2592566755190807e-01  7.9971916998789430e-02  1.4975772665664158e-01  1.2162186830189298e-01  1.5017153409003470e-01  5.0702525126651320e-02  4.9463023230894333e-02  1.1448169333063718e+00  4.9995874704677284e-02  1.3306346885607964e-01  1.1450333853984992e-01  5.1264396005620549e-01  6.6497961857471033e-02  4.7394194709575549e-01  8.5731773285141100e-01  4.8970425655271418e-02  1.2896401317304642e+00  5.8939113559935963e-01  3.2217958975697431e-02  3.9868041160491696e-01  1.3226349799514309e-01  1.1997537401162070e-01  1.1397149879915023e+00  5.1176293259819913e-02  9.7982718676105501e-02  1.3774537423997066e-01  1.3034988561363761e+00  8.4772244278003450e-02  1.6454937689995561e-01  1.2696654517372503e+00  3.0686684032989409e-01  1.5309160023453830e-01  1.2974847534383274e+00  5.6886330339452740e-01  7.4694990582167928e-02  8.7327432911576089e-02  2.1993493288030130e-01  7.2014127822174934e-01  1.2775227042038956e-01  4.3148918358724170e-02  4.3366973786935664e-01  3.0020597582228113e-02  3.0337822773348108e-02  2.9394787252462171e-02  3.0434571212562433e-02  8.6443461474819905e-02  5.4274828490953844e-02  7.0437436616360635e-02  5.6793406509591117e-02  1.2310129856982945e-01  7.0239777141821713e-01  6.4656472534763032e-02  7.6005701856972918e-02  2.0557844303600861e-01  8.2604691638503525e-01  6.7520256443381188e-01  8.4620652988021638e-01  6.8976555709294632e-02  8.2499356363209597e-01  1.3460776625364432e-01  7.0716994432024893e-01  1.2977146082368289e+00  1.3916176660989649e-01  5.4887830552564310e-01  2.5343164514396010e-01  1.3487477982203372e-01  3.8361906475439067e-01  8.0737465350134541e-01  1.1795559380472038e+00  3.9690445562578253e-02  -1.7581163044267913e-02  -1.7410099174554283e-02  -1.8914066762051301e-02  -2.1746301858234427e-02  -1.8943267452491110e-02  -2.2100104123336978e-02  -1.7632064038244129e-02  -1.8698896745857729e-02  -1.7697636033295553e-02  -1.8872766252590462e-02  -2.1900311048057612e-02  -2.1892245935300345e-02  -1.3846816993741656e-02  -1.3235295026899546e-02  -1.4427669339960869e-02  -1.3527157974975954e-02  -1.8136794873713218e-02  -2.1664229998771451e-02  -2.1689826889959938e-02  -1.7977937031996377e-02  -2.4543469028101155e-02  -2.6335005934466377e-02  -1.8414817910338794e-02  -1.8489955228281518e-02  -2.3175936197627939e-02  -2.6222192679126861e-02  -2.6999356827440552e-02  -2.6911883276925536e-02  -2.7587545561359058e-02  -2.7564281021296846e-02  -1.4912427034004800e-02  -1.4565892712985317e-02  -1.4895166071680486e-02  -1.4534001358717746e-02  -1.4636472981860800e-02  -1.4559895315577729e-02  -1.4700376013268231e-02  -2.7556558692377629e-02  -2.7635537787052303e-02  -2.6962368385880012e-02  -2.6245080321714413e-02  -1.5518791689174005e-02  -1.5167522740509356e-02  -1.5043149618110175e-02  -1.4914649883340141e-02  -1.5215473780239677e-02  -1.4931742830084705e-02  -1.5934443915015532e-02  -1.4433120625203908e-02  -2.6386440544183890e-02  -2.5879642735414512e-02  -1.4857613403238554e-02  -1.4478502205052098e-02  -1.4884621006548316e-02  -2.4705072424905633e-02  -2.6367972539203286e-02  -2.6580800640324333e-02  -2.7214148075999606e-02  -2.7490376564384932e-02  -2.7731233016027392e-02  -2.7480044633232382e-02  -2.7601878751463579e-02  -2.7503478882595765e-02  -2.7143372728685635e-02  -2.4563370363935799e-02  -2.6336466947164027e-02  -2.6473796466176067e-02  -2.7114130568655130e-02  -2.6698084289005827e-02  -2.7372223067742219e-02  -2.7626714710531172e-02  -2.7504168244744467e-02  -2.7388165790913667e-02  -2.7060206976468600e-02  -1.9960754777957879e-02  -2.4582583307500211e-02  -2.6373856349752981e-02  -2.6254487978043053e-02  -2.7047433996098297e-02  -2.6948010301919491e-02  -2.7616750604776530e-02  -2.7614134333620994e-02  -2.7607266572702058e-02  -2.7612217547924114e-02  -1.7356843300276488e-02  -1.7966122720982212e-02  -1.9368941847301178e-02  -1.9346961505504783e-02  -2.7369158587065897e-02  -2.6827140945974937e-02  -2.6752414112351578e-02  -2.6871900563154770e-02  -2.6960701752577407e-02  -2.7018584206264219e-02  -1.4472002481984617e-02  -2.6611103267152245e-02  -2.7371285755909171e-02  -2.6800896658718602e-02  -2.6560401297689523e-02  -2.7168411892237617e-02  -2.7264905130816690e-02  -1.9895211576426514e-02  -2.5177635180500015e-02  -2.5351509834259194e-02  -1.2471109753161456e-02  -1.2171460637873574e-02  -1.2404947915161628e-02  -2.5158723038855184e-02  -2.5237714096656719e-02  -2.4709233157186546e-02  -2.4418870904083748e-02  -2.5830568076099545e-02  -2.6507057967682903e-02  -2.5723908577432140e-02  -2.6352814413811564e-02  -2.5031862762252249e-02  -2.6185878195225446e-02  -2.4603798316899034e-02  -2.5389674604675557e-02  -2.4009165510667403e-02  -2.4325025723702140e-02  -2.5203425281592536e-02  -2.6259318189892387e-02  -2.4694575943635787e-02  -2.5349307205414010e-02  -2.4058668633841405e-02  -2.4441205508705339e-02  -2.3406982588576736e-02  -2.3690119803307451e-02  -2.2882042485189439e-02  -2.3194937999464923e-02  -2.2527986816716628e-02  -2.2983443579600492e-02  -2.2411291111545426e-02  -2.3066957264038034e-02  -2.3301275811197990e-02  -2.3557577467912441e-02  -2.2752118846828363e-02  -2.3059006208905341e-02  -2.2389109446546408e-02  -2.2843970703440991e-02  -2.2262009152769061e-02  -2.2929652877613740e-02  -2.5008087338910481e-02  -2.5027865368011853e-02  -2.6740519015097407e-02  -2.6646081051400913e-02  -2.4947410225866697e-02  -2.4789760590497957e-02  -2.2608036764381775e-02  -2.3452418537535161e-02  -2.2936228388478860e-02  -2.4060305457786358e-02  -2.3345483903299692e-02  -2.2461404580103334e-02  -2.3310697601586907e-02  -2.2786346722001048e-02  -2.3925666667765345e-02  -2.3213799688887659e-02  -2.7113398940219160e-02  -2.5681377294767195e-02  -2.5340386967667248e-02  -2.3587080819322537e-02  -2.4266609738993764e-02  -2.3696124870841960e-02  -2.4362981112479382e-02  -2.2747798104487946e-02  -2.2904332174964983e-02  -2.2883155540659249e-02  -2.3082940017485960e-02  -2.3126014449157861e-02  -2.0861788798880284e-02  -2.3243895831804855e-02  -2.4391111301890537e-02  -2.3326468638494902e-02  -2.2505972938774522e-02  -2.0712527457973317e-02  -2.4433896660085570e-02  -2.2986138488674146e-02  -2.4426105372263252e-02  -2.2256353323181041e-02  -2.4569032726739735e-02  -2.2355136210671273e-02  -2.2251046686334104e-02  -2.2014130436971768e-02  -2.4140152154421245e-02  -2.1795176598540481e-02  -2.3956252947100402e-02  -1.8810849826074869e-02  -2.6519507149072852e-02  -9.6658320624045998e-03  -2.5321194714852502e-02  -2.6627404213290032e-02  -2.1723091879357882e-02  -2.1762521381467528e-02  -2.3360305966965502e-02  -2.1822888199839463e-02  -2.5709730960038688e-02  -2.5561388007235654e-02  -2.5317113978234659e-02  -2.6277912906823717e-02  -2.5524406165942433e-02  -2.5942387955165781e-02  -2.5195747456654032e-02  -2.4578817088534734e-02  -2.4110076678423024e-02  -2.5399348105560878e-02  -2.4291812590429257e-02  -2.3543466503561681e-02  -2.3438426818922865e-02  -2.3001342893082255e-02  -2.2939152668806879e-02  -2.2728313147146940e-02  -2.2693919850130421e-02  -2.3420282232263803e-02  -2.3242113072343196e-02  -2.1867100008176925e-02  -2.3946436747702800e-02  -2.3814145673932429e-02  -2.3193239074692559e-02  -1.9204295326836918e-02  -2.2757346492875710e-02  -2.1984502658796062e-02  -2.2352276978198582e-02  -2.1800831952402348e-02  -9.1925458269046956e-03  -9.9678330313586333e-03  -9.4871750696952622e-03  -2.5983429740423863e-02  -2.3655969595248683e-02  -2.6728283864574178e-02  -2.4589709127460467e-02  -2.5872063221482271e-02  -1.9439680084064978e-02  -2.0127985805891029e-02  -2.0339782634773818e-02  -2.3448615517018809e-02  -2.4713126191601889e-02  -2.5558236891498734e-02  -2.4672835185039328e-02  -2.3451748946290884e-02  -2.3705435623833575e-02  -2.3826602455064499e-02  -2.3259049985434360e-02  -2.3001557517676022e-02  -2.2921527088969260e-02  -2.2125115875436391e-02  -2.2693012382579585e-02  -2.2624374643737250e-02  -2.2796441650376541e-02  -2.2582445532566737e-02  -2.3169155691728567e-02  -2.2535102831410463e-02  -2.3628629286123800e-02  -2.3539576048843096e-02  -2.4318245378268415e-02  -2.3925479514659103e-02  -2.5204283402699163e-02  -2.3970292376615063e-02  -2.5804313651155843e-02  -2.3469699717446005e-02  -2.5268392559005287e-02  -2.3094000634010594e-02  -2.4072014733330017e-02  -2.2460789770557668e-02  -2.5927977520667417e-02  -2.5452285777983197e-02  -2.1887179639741416e-02  -2.0437113115914059e-02  -2.3162191700016248e-02  -2.2541548299731803e-02  -2.5890211740218813e-02  -2.2488081632619644e-02  -2.5142661924629193e-02  -2.1476249758204936e-02  -2.1222395365081463e-02  -2.3260243394525881e-02  -2.5881711168740041e-02  -2.0945216854290134e-02  -2.4252910247623945e-02  -2.2081882461219920e-02  -2.0935679428579497e-02  -2.1264079935012392e-02  -2.1308885810496617e-02  -2.3810320554018528e-02  -2.2092039657329598e-02  -2.2875509554650716e-02  -2.2308700962326421e-02  -2.3672182094196130e-02  -2.4374484418309934e-02  -2.0741819559303400e-02  -2.1524429041012181e-02  -1.7439064547943469e-02  -2.1756574440212069e-02  -2.2738012248683184e-02  -2.4897853907965915e-02  -2.2681454251973834e-02  -2.1593307711036246e-02  -1.7342