<?xml version="1.0"?>
<VTKFile type="UnstructuredGrid"  version="0.1"  >
<UnstructuredGrid>
<Piece  NumberOfPoints="1297" NumberOfCells="2496">
<Points>
<DataArray  type="Float64"  NumberOfComponents="3"  format="ascii">0 0 0  0 1 0  1 1 0  1 0 0  1.1 -0.1 0  -0.1 -0.1 0  1.1 1.1 0  -0.1 1.1 0  0.2821788698337505 0.6844556767145175 0  0.2823551917555098 0.3162468146864932 0  0.7180082820856855 0.3156700263902472 0  0.7178412812834261 0.6845821855333308 0  0.5001026800591457 0.500162984356688 0  0 0.9499999999997918 0  0 0.8999999999995836 0  0 0.8499999999996529 0  0 0.7999999999999998 0  0 0.7500000000003466 0  0 0.7000000000006934 0  0 0.6500000000010401 0  0 0.6000000000013869 0  0 0.5500000000017335 0  0 0.5000000000020587 0  0 0.4500000000018723 0  0 0.4000000000016644 0  0 0.3500000000014564 0  0 0.3000000000012483 0  0 0.2500000000010403 0  0 0.2000000000008322 0  0 0.1500000000006241 0  0 0.100000000000416 0  0 0.05000000000020799 0  0.04999999999989965 0 0  0.09999999999981467 0 0  0.1499999999997036 0 0  0.1999999999995579 0 0  0.2499999999994121 0 0  0.2999999999992664 0 0  0.3499999999991206 0 0  0.3999999999989749 0 0  0.4499999999988292 0 0  0.4999999999986943 0 0  0.5499999999988151 0 0  0.5999999999989468 0 0  0.6499999999990784 0 0  0.69999999999921 0 0  0.7499999999993417 0 0  0.7999999999994734 0 0  0.8499999999996051 0 0  0.8999999999997368 0 0  0.9499999999998684 0 0  1 0.04999999999989965 0  1 0.09999999999981467 0  1 0.1499999999997036 0  1 0.1999999999995579 0  1 0.2499999999994121 0  1 0.2999999999992664 0  1 0.3499999999991206 0  1 0.3999999999989749 0  1 0.4499999999988292 0  1 0.4999999999986943 0  1 0.5499999999988151 0  1 0.5999999999989468 0  1 0.6499999999990784 0  1 0.69999999999921 0  1 0.7499999999993417 0  1 0.7999999999994734 0  1 0.8499999999996051 0  1 0.8999999999997368 0  1 0.9499999999998684 0  0.9499999999997918 1 0  0.8999999999995836 1 0  0.8499999999996529 1 0  0.7999999999999998 1 0  0.7500000000003466 1 0  0.7000000000006934 1 0  0.6500000000010401 1 0  0.6000000000013869 1 0  0.5500000000017335 1 0  0.5000000000020587 1 0  0.4500000000018723 1 0  0.4000000000016644 1 0  0.3500000000014564 1 0  0.3000000000012483 1 0  0.2500000000010403 1 0  0.2000000000008322 1 0  0.1500000000006241 1 0  0.100000000000416 1 0  0.05000000000020799 1 0  -0.1 1.05000000000004 0  -0.1 1.000000000000079 0  -0.1 0.9500000000001624 0  -0.1 0.9000000000003032 0  -0.1 0.850000000000444 0  -0.1 0.8000000000005848 0  -0.1 0.7500000000007256 0  -0.1 0.7000000000008665 0  -0.1 0.6500000000010508 0  -0.1 0.6000000000012352 0  -0.1 0.5500000000014196 0  -0.1 0.500000000001539 0  -0.1 0.4500000000014195 0  -0.1 0.4000000000013 0  -0.1 0.3500000000011588 0  -0.1 0.3000000000010178 0  -0.1 0.2500000000008986 0  -0.1 0.2000000000007579 0  -0.1 0.1500000000006174 0  -0.1 0.1000000000005272 0  -0.1 0.05000000000040083 0  -0.1 2.671196597248127e-13 0  -0.1 -0.0499999999998666 0  -0.0500000000000906 -0.1 0  -1.730560139634463e-13 -0.1 0  0.04999999999975802 -0.1 0  0.09999999999961506 -0.1 0  0.1499999999994613 -0.1 0  0.199999999999302 -0.1 0  0.2499999999991446 -0.1 0  0.2999999999990088 -0.1 0  0.3499999999988296 -0.1 0  0.3999999999986936 -0.1 0  0.4499999999985143 -0.1 0  0.4999999999984002 -0.1 0  0.5499999999985247 -0.1 0  0.5999999999986493 -0.1 0  0.6499999999987955 -0.1 0  0.6999999999989417 -0.1 0  0.7499999999990659 -0.1 0  0.7999999999992116 -0.1 0  0.8499999999993573 -0.1 0  0.8999999999994526 -0.1 0  0.949999999999584 -0.1 0  0.9999999999997226 -0.1 0  1.049999999999861 -0.1 0  1.1 -0.0500000000000906 0  1.1 -1.730560139634463e-13 0  1.1 0.04999999999975802 0  1.1 0.09999999999961506 0  1.1 0.1499999999994613 0  1.1 0.199999999999302 0  1.1 0.2499999999991446 0  1.1 0.2999999999990088 0  1.1 0.3499999999988296 0  1.1 0.3999999999986936 0  1.1 0.4499999999985143 0  1.1 0.4999999999984002 0  1.1 0.5499999999985247 0  1.1 0.5999999999986493 0  1.1 0.6499999999987955 0  1.1 0.6999999999989417 0  1.1 0.7499999999990659 0  1.1 0.7999999999992116 0  1.1 0.8499999999993573 0  1.1 0.8999999999994526 0  1.1 0.949999999999584 0  1.1 0.9999999999997226 0  1.1 1.049999999999861 0  1.05000000000004 1.1 0  1.000000000000079 1.1 0  0.9500000000001624 1.1 0  0.9000000000003032 1.1 0  0.850000000000444 1.1 0  0.8000000000005848 1.1 0  0.7500000000007256 1.1 0  0.7000000000008665 1.1 0  0.6500000000010508 1.1 0  0.6000000000012352 1.1 0  0.5500000000014196 1.1 0  0.500000000001539 1.1 0  0.4500000000014195 1.1 0  0.4000000000013 1.1 0  0.3500000000011588 1.1 0  0.3000000000010178 1.1 0  0.2500000000008986 1.1 0  0.2000000000007579 1.1 0  0.1500000000006174 1.1 0  0.1000000000005272 1.1 0  0.05000000000040083 1.1 0  2.671196597248127e-13 1.1 0  -0.0499999999998666 1.1 0  0.2768512637864999 0.6678553565448909 0  0.2741706589255155 0.646609098821755 0  0.2726601598973427 0.6232780661904932 0  0.2709675192948434 0.5984797729077679 0  0.2687940707561762 0.5732382582032878 0  0.2663885970310846 0.5484639810668195 0  0.2645897956053984 0.5242723093247547 0  0.2641057561999403 0.500430530313698 0  0.2649320258851425 0.4764785008804734 0  0.2668672024270816 0.45214760165595 0  0.2692236485444577 0.4272351676662811 0  0.2712818694108854 0.4019812075899815 0  0.272845905802543 0.3773023794513059 0  0.2743450554189851 0.3540444541183427 0  0.277037539520288 0.3328279589754797 0  0.298225077165937 0.3091685656982696 0  0.3185312800615617 0.3038639904934761 0  0.3411738835771976 0.2988683143062731 0  0.3649600229488187 0.2926542826315788 0  0.3884726466794815 0.2848490627428992 0  0.410919374187924 0.2766001377188608 0  0.4328691253687881 0.2692204879378342 0  0.4547681272141015 0.2633897705782149 0  0.4771391033003645 0.2592467352848402 0  0.4999496974179901 0.2576050572232331 0  0.5227891828905697 0.2587262333094349 0  0.5453090891770354 0.2625451687036838 0  0.5670288856719045 0.2687380721264826 0  0.5890793061217267 0.2758635261209728 0  0.6114858991304781 0.2839626307420864 0  0.6350138617669674 0.2915833019061143 0  0.6589190893861042 0.2978917773521373 0  0.6815884763889307 0.3031104570973077 0  0.7019701039028678 0.3085767452749775 0  0.7233001592080261 0.3325268454186374 0  0.7260563546752115 0.353734300379054 0  0.7276091698047205 0.3771737285032717 0  0.7292108098213782 0.4020390287388982 0  0.7314167295896677 0.4273362591925552 0  0.7338343177564394 0.4521954432131293 0  0.7356588963410969 0.4764169172088183 0  0.7363059341410438 0.500338348816783 0  0.7355436183841508 0.5242949325739042 0  0.7334711108043974 0.5484842512138476 0  0.7308428602233151 0.573254511245373 0  0.7286032732347435 0.5984778604281046 0  0.7272877518497199 0.6232207034977556 0  0.7258577317652193 0.646577186749132 0  0.7231310572583778 0.6677425358605442 0  0.7018456420661661 0.6916892545716076 0  0.6814946959340227 0.6971349958586149 0  0.65878274856507 0.7023558138602045 0  0.6348919344693476 0.7086660165113784 0  0.6113958469169991 0.7163268419201986 0  0.5890650983793019 0.7245488866247474 0  0.5670946471868499 0.7318960475084421 0  0.5453601768893241 0.7382736867695923 0  0.5228617400070518 0.7423738159542117 0  0.4999753997236959 0.7437605745311993 0  0.4771269720218586 0.7423433618050373 0  0.4547071427513988 0.7383233123964597 0  0.432690945164319 0.7323355880409005 0  0.4109400533093889 0.7245588018637389 0  0.3886195294645281 0.7162219431969862 0  0.364951117664959 0.7083961929805622 0  0.3411114889927146 0.7020768024165828 0  0.3184775121364379 0.6969582027074431 0  0.2981054915943372 0.6915677299060685 0  0.3758058320757393 0.3121912295136492 0  0.2872025061130296 0.4388613077895761 0  0.3758522483322822 0.6886704783973365 0  0.2868908638146959 0.5617159554604012 0  0.7123357355171074 0.5860312130843258 0  0.6012331210106061 0.6956474037828698 0  0.6231956790545526 0.310833075167494 0  0.7146394375393628 0.4381642723992408 0  0.7166416000957903 0.5118947098773019 0  0.5559816458089099 0.2931075494050046 0  0.4441457634197515 0.295989901656326 0  0.4428675605260326 0.7052548262173841 0  0.5342631370642505 0.7096565391811136 0  0.2843425588072738 0.4881445203486779 0  0.2894594410950419 0.3889981162421197 0  0.4885634463076938 0.293434097577235 0  0.294319985450903 0.6097021973297696 0  0.7059553664854873 0.3867908340455967 0  0.4886047612152322 0.7116553754821724 0  0.6472902814447511 0.6838156177331993 0  0.3296871492347103 0.324073766049957 0  0.6707380056861089 0.324820909978302 0  0.3302882936545754 0.6788564866933638 0  0.7067743362663552 0.6369922316386548 0  0.2939487809380437 0.3425780466683178 0  0.2960959564162311 0.6567424338106552 0  0.6913712032564282 0.6750586295865754 0  0.7070563643010082 0.341645437271273 0  0.3527935324972724 0.683374244127575 0  0.3637936941761433 0.6636828364133256 0  0.3861082127511796 0.6673252492224085 0  0.3732521770852824 0.6420741832919131 0  0.3963451359963518 0.6437774144452452 0  0.3825902533866598 0.6162283117125429 0  0.4108479903410047 0.6160436593954119 0  0.3939472778334699 0.5854904233243595 0  0.3554803893912135 0.6144493315144641 0  0.4288537307723037 0.5851577768426941 0  0.4071718405743259 0.5497065541877374 0  0.3675903040145088 0.5553074048328956 0  0.3835600179176909 0.514949946327445 0  0.3469092695096219 0.517106291595247 0  0.3596111846427364 0.4813041425264649 0  0.3985809091493134 0.4758126287118162 0  0.3783337888915222 0.4422187952067694 0  0.4148648365259106 0.4369100762972598 0  0.3952393465030639 0.4058792166525351 0  0.4292832028640537 0.3958210207221529 0  0.3611604758928797 0.4066375023027201 0  0.4047603485077151 0.3730757455307923 0  0.4386907985174909 0.6165248307195788 0  0.4648476103802102 0.5916489946682003 0  0.4836373601150462 0.615296054323386 0  0.5022586054446126 0.5927148715393287 0  0.5200274224797312 0.6156810338904849 0  0.5387769237203853 0.5935991635731571 0  0.5562684945558157 0.6178955776901947 0  0.5752745457774512 0.5956366563618414 0  0.593022059105114 0.6237159186932913 0  0.6112122433965101 0.5910383763388952 0  0.59619487026961
[...]
<PointData  Scalars="state"> 
<DataArray  type="Float64"  Name="state"  format="ascii">0.0000000000000000e+00  0.0000000000000000e+00  0.0000000000000000e+00  0.0000000000000000e+00  0.0000000000000000e+00  0.0000000000000000e+00  0.0000000000000000e+00  0.0000000000000000e+00  -2.2134625402455341e-02  -2.2235088837083163e-02  -2.2309528049884484e-02  -2.2249227900077027e-02  1.3342888757419200e+00  0.0000000000000000e+00  0.0000000000000000e+00  0.0000000000000000e+00  0.0000000000000000e+00  0.0000000000000000e+00  0.0000000000000000e+00  0.0000000000000000e+00  0.0000000000000000e+00  0.0000000000000000e+00  0.0000000000000000e+00  0.0000000000000000e+00  0.0000000000000000e+00  0.0000000000000000e+00  0.0000000000000000e+00  0.0000000000000000e+00  0.0000000000000000e+00  0.0000000000000000e+00  0.0000000000000000e+00  0.0000000000000000e+00  0.0000000000000000e+00  0.0000000000000000e+00  0.0000000000000000e+00  0.0000000000000000e+00  0.0000000000000000e+00  0.0000000000000000e+00  0.0000000000000000e+00  0.0000000000000000e+00  0.0000000000000000e+00  0.0000000000000000e+00  0.0000000000000000e+00  0.0000000000000000e+00  0.0000000000000000e+00  0.0000000000000000e+00  0.0000000000000000e+00  0.0000000000000000e+00  0.0000000000000000e+00  0.0000000000000000e+00  0.0000000000000000e+00  0.0000000000000000e+00  0.0000000000000000e+00  0.0000000000000000e+00  0.0000000000000000e+00  0.0000000000000000e+00  0.0000000000000000e+00  0.0000000000000000e+00  0.0000000000000000e+00  0.0000000000000000e+00  0.0000000000000000e+00  0.0000000000000000e+00  0.0000000000000000e+00  0.0000000000000000e+00  0.0000000000000000e+00  0.0000000000000000e+00  0.0000000000000000e+00  0.0000000000000000e+00  0.0000000000000000e+00  0.0000000000000000e+00  0.0000000000000000e+00  0.0000000000000000e+00  0.0000000000000000e+00  0.0000000000000000e+00  0.0000000000000000e+00  0.0000000000000000e+00  0.0000000000000000e+00  0.0000000000000000e+00  0.0000000000000000e+00  0.0000000000000000e+00  0.0000000000000000e+00  0.0000000000000000e+00  0.0000000000000000e+00  0.0000000000000000e+00  0.0000000000000000e+00  0.0000000000000000e+00  0.0000000000000000e+00  0.0000000000000000e+00  0.0000000000000000e+00  0.0000000000000000e+00  0.0000000000000000e+00  0.0000000000000000e+00  0.0000000000000000e+00  0.0000000000000000e+00  0.0000000000000000e+00  0.0000000000000000e+00  0.0000000000000000e+00  0.0000000000000000e+00  0.0000000000000000e+00  0.0000000000000000e+00  0.0000000000000000e+00  0.0000000000000000e+00  0.0000000000000000e+00  0.0000000000000000e+00  0.0000000000000000e+00  0.0000000000000000e+00  0.0000000000000000e+00  0.0000000000000000e+00  0.0000000000000000e+00  0.0000000000000000e+00  0.0000000000000000e+00  0.0000000000000000e+00  0.0000000000000000e+00  0.0000000000000000e+00  0.0000000000000000e+00  0.0000000000000000e+00  0.0000000000000000e+00  0.0000000000000000e+00  0.0000000000000000e+00  0.0000000000000000e+00  0.0000000000000000e+00  0.0000000000000000e+00  0.0000000000000000e+00  0.0000000000000000e+00  0.0000000000000000e+00  0.0000000000000000e+00  0.0000000000000000e+00  0.0000000000000000e+00  0.0000000000000000e+00  0.0000000000000000e+00  0.0000000000000000e+00  0.0000000000000000e+00  0.0000000000000000e+00  0.0000000000000000e+00  0.0000000000000000e+00  0.0000000000000000e+00  0.0000000000000000e+00  0.0000000000000000e+00  0.0000000000000000e+00  0.0000000000000000e+00  0.0000000000000000e+00  0.0000000000000000e+00  0.0000000000000000e+00  0.0000000000000000e+00  0.0000000000000000e+00  0.0000000000000000e+00  0.0000000000000000e+00  0.0000000000000000e+00  0.0000000000000000e+00  0.0000000000000000e+00  0.0000000000000000e+00  0.0000000000000000e+00  0.0000000000000000e+00  0.0000000000000000e+00  0.0000000000000000e+00  0.0000000000000000e+00  0.0000000000000000e+00  0.0000000000000000e+00  0.0000000000000000e+00  0.0000000000000000e+00  0.0000000000000000e+00  0.0000000000000000e+00  0.0000000000000000e+00  0.0000000000000000e+00  0.0000000000000000e+00  0.0000000000000000e+00  0.0000000000000000e+00  0.0000000000000000e+00  0.0000000000000000e+00  0.0000000000000000e+00  0.0000000000000000e+00  0.0000000000000000e+00  0.0000000000000000e+00  0.0000000000000000e+00  0.0000000000000000e+00  0.0000000000000000e+00  0.0000000000000000e+00  0.0000000000000000e+00  0.0000000000000000e+00  0.0000000000000000e+00  0.0000000000000000e+00  -1.9316208857117878e-02  -1.6593494785554008e-02  -1.2087269784606332e-02  -8.0268821132629085e-03  -5.3453264804976348e-03  -4.1377854232959241e-03  -3.6538258929736749e-03  -4.1286240937469937e-03  -2.7910102013024621e-03  -3.4056982530720043e-03  -5.7067865801551897e-03  -8.6234312840046887e-03  -1.1923087043989257e-02  -1.6108286886643963e-02  -1.9203307952068750e-02  -1.9683938035297756e-02  -1.6121386072790938e-02  -1.1524664680707902e-02  -7.0899729927695141e-03  -5.3648690018922611e-03  -3.9332272984470918e-03  -4.1457535830048062e-03  -5.2584354808246818e-03  -4.7356709362947865e-03  -5.3859476115426111e-03  -5.4468050489431610e-03  -4.8429422758079202e-03  -5.2624796145657581e-03  -3.6584725641156217e-03  -6.0266378454052003e-03  -8.2593899584304138e-03  -1.1889584022778019e-02  -1.5981433062541898e-02  -1.9674376662812961e-02  -1.9691056729515370e-02  -1.6442222180014999e-02  -1.2075631229888520e-02  -7.8560021334403620e-03  -5.4605690833200169e-03  -4.1828123933112700e-03  -3.7733116558524718e-03  -3.1510118352088530e-03  -2.7641792571686374e-03  -3.4902139941698426e-03  -4.6298624013309825e-03  -7.0967746848830619e-03  -1.2005612316735956e-02  -1.6241989040025610e-02  -1.9590824415562209e-02  -1.9500039941444964e-02  -1.6131222822076487e-02  -1.2236822006408256e-02  -8.3362632504358075e-03  -5.9423471704525442e-03  -3.8584656515152842e-03  -5.3858076786759395e-03  -4.3376298258974381e-03  -4.9074100271126317e-03  -5.2172743250266228e-03  -5.1315880207761363e-03  -5.0772521822380883e-03  -3.8098279296332593e-03  -4.3610380618718273e-03  -5.6571631810114487e-03  -7.2278361434981384e-03  -1.1543552786725485e-02  -1.6097964589338883e-02  -1.9556503704648839e-02  6.0612129804728243e-02  5.9238511091730291e-02  6.1084904498861801e-02  5.8580221073640797e-02  5.4596241828243873e-02  6.4344454210717189e-02  6.0567352512689084e-02  5.6959521014093052e-02  5.7498862125405843e-02  6.4552825651304893e-02  6.9672365889829238e-02  6.8372934291314802e-02  6.5973343476804475e-02  5.9280150465825424e-02  4.3965108318398040e-02  7.5436093082848557e-02  5.0380754037015883e-02  4.8086824897788198e-02  6.7955333700419979e-02  4.7994799153598756e-02  3.5906155197118469e-02  3.7244545316265344e-02  3.4640316437294795e-02  3.3963836053522524e-02  2.0644940465271162e-02  2.3456000633087396e-02  2.1448716664161118e-02  2.1034246308952662e-02  4.8096119814948067e-02  8.7284688729312859e-02  1.1424298469107987e-01  2.0877919006895937e-01  2.6952258832784903e-01  5.6302386997082066e-01  7.1282369567574955e-01  7.7387253071142559e-01  3.0378594008735793e-01  9.3722705545269080e-01  9.7180007627336606e-01  7.1717271281448713e-01  9.1618977950579961e-01  4.5410331155370315e-01  6.8706270105444467e-01  9.7155544009597627e-01  8.0140084350976548e-01  9.5939972858608047e-01  7.5504108504643530e-01  8.5587472268335019e-01  5.1428189682633818e-01  5.3706858525830914e-01  8.2698669720079709e-01  1.0118660626629976e+00  8.9337730827612560e-01  1.0457077931109184e+00  8.6871347801622267e-01  9.9642245276848296e-01  8.2390188286092825e-01  8.7047601811511355e-01  6.0718106407954153e-01  7.5884298412261497e-01  9.2549345899777891e-01  7.2724262442946963e-01  9.1794137153572852e-01  4.3205808023761044e-01  2.4080469175126290e-01  2.8256833317603353e-01  3.7885689074536910e-01  2.2929053982522796e-01  1.4322717027920528e-01  5.9837218506968004e-01  9.0688459865518289e-01  1.3012152728416224e-01  1.9652762631508980e-01  4.7607628311488909e-01  3.4749974917818732e-01  6.0322584986376715e-01  9.4753216687042585e-01  5.4857786334632730e-01  8.9621648045385038e-01  1.0969104961709664e+00  9.3744607080680009e-01  7.6248795750171128e-01  7.6359172401904463e-01  9.9203200204742814e-01  7.5586576100879188e-01  5.6442716096722123e-01  4.4649089403036568e-01  5.7099594013941501e-01  2.2035262270158829e-01  1.5776442380724554e-01  9.3803861300795877e-02  1.0043621084785616e-01  1.1175506985259653e+00  1.3937804591336286e-01  1.7280729598111222e-01  1.1287548739289469e-01  1.4412228210471878e-01  8.5612578595599662e-02  8.0323093725691921e-02  1.2506871451244014e-01  4.5334263114982642e-01  1.2765247522345796e-01  7.9721137531433478e-02  1.7570018123606748e-01  3.0490279546121746e-01  1.7846224322220233e-01  1.7727938589858466e-01  2.2371973526657307e-01  1.3048313415843546e-01  1.0407811508761751e-01  8.4319305301164854e-02  1.3119007727489748e-01  9.4665412946846467e-02  1.4551311133739434e-01  7.1413033075588703e-02  2.9642933049709363e-01  1.2070801336415042e+00  8.3834367058252882e-02  1.1872030879861584e+00  4.8835589115034295e-01  1.5039392514070934e-01  3.8264070352648655e-01  1.6239737750760688e-01  9.0680546317658442e-02  8.1242952871920474e-02  1.4102201826071076e-01  4.6737432088335523e-01  1.9780101722975452e-01  1.0582848546679444e-01  9.9253033007827363e-01  5.5551737309964773e-02  4.5357796118096899e-02  4.2483080848871280e-01  1.6452246670730583e-01  1.9272858254557754e-01  3.0147071212912990e-01  1.8957406455181378e-01  1.0731291686815624e-01  1.6436018311238756e-01  9.7822894893513715e-02  8.0114646908144432e-02  5.8831040975410843e-02  3.2264041420888512e-02  4.8929892779251569e-02  8.9919328633405071e-02  6.6707765091305229e-02  6.5554184021073422e-02  6.1453265904840008e-02  2.9816296391101293e-02  3.2812022701221528e-02  6.8749116939242280e-02  1.3598443787724782e-01  3.6323073620226171e-01  4.9123915812694770e-02  6.6041204686052860e-02  7.3976513627424162e-02  4.8939221100781416e-02  7.7484387984675121e-02  6.9810748286953772e-02  6.3076659459222584e-02  3.4788841615510852e-02  5.2982507702653933e-02  6.4403210807861641e-02  5.5743115733998247e-02  8.1388231875714354e-02  6.7012222860574178e-02  1.1895745319449877e-01  6.6744023489695867e-02  5.8918621600327167e-02  3.4672334462521222e-02  3.0781776910610223e-02  7.9985449809043083e-02  1.9510141807169495e-01  5.7551912569986416e-02  6.5357758387875192e-02  8.8498433553918912e-02  2.1031901411487985e-02  2.1465649620703679e-02  2.0602462881858588e-02  2.1745803236975132e-02  5.9236712394792015e-02  1.0898239393196310e+00  1.2538297370215754e+00  9.7290104581247899e-02  5.6788225602425843e-02  5.2655158266863226e-02  5.0398694201321634e-02  3.2891473476818894e-02  6.3829755790064904e-02  8.3502719569967465e-02  1.6004537304097669e-01  2.1045312727564058e-01  6.5984277010508852e-02  1.7312671604013924e-01  1.1284846952111371e+00  1.1672002655196945e+00  8.3611957334708265e-01  1.2703234598248747e-01  8.3341709355761906e-02  1.4171809970201701e-01  1.2494638651866993e-01  1.4723045140955451e-01  5.7868143497658606e-02  5.6010379467294424e-02  1.1335492232652431e+00  4.6067798228562544e-02  1.3299827133238515e-01  1.1733808703013221e-01  4.8760204819933012e-01  7.0824685226015593e-02  4.2613478545811195e-01  8.5292546606269193e-01  5.5174069455300907e-02  1.2778953398267210e+00  6.1716415833971539e-01  2.4903736710354098e-02  3.5773792228939372e-01  1.3076090711270061e-01  1.2149519926892721e-01  1.1182867519257198e+00  5.7789277182931233e-02  1.0398162805181904e-01  1.2941892019188869e-01  1.2904249724115617e+00  8.7262170613022494e-02  1.8423423969516217e-01  1.2568478703913444e+00  2.8231680473331078e-01  1.4252965624595854e-01  1.2852122939641517e+00  5.0553061045711845e-01  7.8144429191946210e-02  9.3049299063119373e-02  2.2367719504679065e-01  6.7133084155081058e-01  1.2531711899059941e-01  5.0153934618467066e-02  3.8942836715940438e-01  2.1392596605822795e-02  2.1656437292201715e-02  2.0856035907600611e-02  2.1782220227186507e-02  9.0534557497877463e-02  5.1669774302615289e-02  7.4634269540184581e-02  5.9179431636234160e-02  1.2392454816074058e-01  6.7493701604786194e-01  6.0124198307419316e-02  7.6149365287066173e-02  2.7291147240923208e-01  8.1285160744267482e-01  6.1527969782179726e-01  8.5059277305837400e-01  7.2194698300101459e-02  8.1636131751612018e-01  1.4105512052909175e-01  6.4507507162300037e-01  1.2858848636425477e+00  1.4394907377265345e-01  5.1332975502006295e-01  2.5293499729376645e-01  1.2641230666580711e-01  3.1785014497857661e-01  7.9145253700535700e-01  1.1639583303376875e+00  3.3650951525949047e-02  -1.6085301449819206e-02  -1.5940949396289785e-02  -1.7490021826733509e-02  -2.1911338535154697e-02  -1.7500492709300920e-02  -2.2238326073563422e-02  -1.6096134411854299e-02  -1.7094529290523127e-02  -1.6225040383890842e-02  -1.7380962045827793e-02  -2.2065913816383960e-02  -2.2077135711715559e-02  -1.3704706994288614e-02  -1.3108573768436925e-02  -1.4276082981686656e-02  -1.3392674015627933e-02  -1.5699278216724122e-02  -2.1570327230216742e-02  -2.1651829657292707e-02  -1.5574339534485143e-02  -2.4767113826680235e-02  -2.6055945483249077e-02  -1.6304201170787326e-02  -1.6445137417338000e-02  -2.3488466127521892e-02  -2.5980039385925864e-02  -2.6690276576240627e-02  -2.6745559167530353e-02  -2.7059507833164367e-02  -2.7114505564530711e-02  -1.4757065507090005e-02  -1.4415862581113031e-02  -1.4742731096827975e-02  -1.4381578343325530e-02  -1.4425325562712019e-02  -1.4352741505669913e-02  -1.4484654853536703e-02  -2.6996186824387997e-02  -2.7092031700773719e-02  -2.6427072469537845e-02  -2.5776448494687847e-02  -1.5167121288403017e-02  -1.4872886309053198e-02  -1.4760537496009526e-02  -1.4585395507946368e-02  -1.4861452133332438e-02  -1.4591585026047356e-02  -1.5586039955342332e-02  -1.4268750366276390e-02  -2.5712180359159131e-02  -2.5186184441510176e-02  -1.4685393223097672e-02  -1.4316033450004777e-02  -1.4714576650651300e-02  -2.5039000216256536e-02  -2.6121037606658591e-02  -2.6431994392288372e-02  -2.6943916670607436e-02  -2.7073068828065934e-02  -2.7172033568062318e-02  -2.6987671886294785e-02  -2.7057060228711436e-02  -2.6973462506345813e-02  -2.6591484912781516e-02  -2.4918491055548175e-02  -2.6079292587304986e-02  -2.6324084322182858e-02  -2.6839741638908197e-02  -2.6483870372024394e-02  -2.6960809126469362e-02  -2.7067162198837910e-02  -2.6958014698749855e-02  -2.6861764023875585e-02  -2.6511085512872193e-02  -1.9238796770313857e-02  -2.4798434154158319e-02  -2.6095935462253365e-02  -2.6012141318178510e-02  -2.6731904625706335e-02  -2.6776912570870687e-02  -2.7092271156021856e-02  -2.7162901581185808e-02  -2.7044989162921571e-02  -2.7069973198161651e-02  -1.4559680122649400e-02  -1.5294794308225862e-02  -1.7893436408997130e-02  -1.7877840196783158e-02  -2.6770514621557554e-02  -2.6316972054401373e-02  -2.6247260693228861e-02  -2.6342451546640871e-02  -2.6452302195357168e-02  -2.6503889004620432e-02  -1.4294614956360609e-02  -2.6107632613606307e-02  -2.6844914061831465e-02  -2.6272135424189162e-02  -2.6058375699497354e-02  -2.6646983421253878e-02  -2.6679313219102729e-02  -1.8986280698202254e-02  -2.4719465438968597e-02  -2.4895874031611538e-02  -1.2352125148118032e-02  -1.2058379772943799e-02  -1.2287485679744957e-02  -2.4682704776412847e-02  -2.4759367738646947e-02  -2.4089287499405018e-02  -2.3742110915993046e-02  -2.5364440567465209e-02  -2.6019125865479900e-02  -2.5256923602716350e-02  -2.5862294505556362e-02  -2.4590675384754127e-02  -2.5691687001088190e-02  -2.4178850383294322e-02  -2.4907492246887829e-02  -2.3601054454453849e-02  -2.3861816872567738e-02  -2.4762926023929824e-02  -2.5772603088711120e-02  -2.4270044780414113e-02  -2.4880316480445554e-02  -2.3654158156875830e-02  -2.3980349175529620e-02  -2.3031827890038735e-02  -2.3226980374698027e-02  -2.2537909914700210e-02  -2.2744503770111085e-02  -2.2204588114712334e-02  -2.2547397295207963e-02  -2.2094994579698102e-02  -2.2639269701617934e-02  -2.2924095794799676e-02  -2.3094702872112120e-02  -2.2406740820453432e-02  -2.2605859649560439e-02  -2.2064605212293531e-02  -2.2404332347262957e-02  -2.1944201872022118e-02  -2.2498734825835708e-02  -2.4534120357889388e-02  -2.4519763941659868e-02  -2.6571478358536554e-02  -2.6471785107788002e-02  -2.4471601500288112e-02  -2.4289803151917949e-02  -2.2281201346313083e-02  -2.3026620812038819e-02  -2.2590349051717425e-02  -2.3639081611180796e-02  -2.2976830408302347e-02  -2.2132732762462755e-02  -2.2883724935486204e-02  -2.2437358444797901e-02  -2.3502274571670555e-02  -2.2840162064407157e-02  -2.6523464257467978e-02  -2.5129820449555126e-02  -2.4768644997498621e-02  -2.2909805707270671e-02  -2.3612669926935854e-02  -2.3027141725911859e-02  -2.3715004124332448e-02  -2.2105224185354388e-02  -2.2521118957160816e-02  -2.2258030545924699e-02  -2.2701413609094525e-02  -2.2446898218745830e-02  -2.0640849343055118e-02  -2.2553901132471139e-02  -2.3984130758834096e-02  -2.2936738801172005e-02  -2.2109146066806518e-02  -2.0489435110430505e-02  -2.4017057339177278e-02  -2.2599476040735283e-02  -2.3740322008944173e-02  -2.1867594586802888e-02  -2.3870308193956784e-02  -2.1767543236732922e-02  -2.1693591113508486e-02  -2.1416564514928835e-02  -2.3399361337669785e-02  -2.1401545927615361e-02  -2.3463225834093583e-02  -1.8528777788944659e-02  -2.6075161181731206e-02  -9.5958954185516917e-03  -2.4796345618423182e-02  -2.6174551474499971e-02  -2.1425794739324294e-02  -2.1136807981122885e-02  -2.2594804747490729e-02  -2.1530656831962772e-02  -2.5533894882239672e-02  -2.5396960355482608e-02  -2.4994406372974443e-02  -2.5819499034876018e-02  -2.5010771953303618e-02  -2.5250491998276794e-02  -2.4481118818744176e-02  -2.3918087006372726e-02  -2.3400854300246725e-02  -2.4764149169501756e-02  -2.3464885197199626e-02  -2.2798400353314114e-02  -2.2420560340304856e-02  -2.2221762701335104e-02  -2.1778561066733280e-02  -2.1909810917220607e-02  -2.1420079542807398e-02  -2.2930363326034906e-02  -2.2789879569569869e-02  -2.1474540534753877e-02  -2.3460713464771243e-02  -2.2861044657701609e-02  -2.2077602043419881e-02  -1.8913729099330541e-02  -2.1852069801051709e-02  -2.1612213239555943e-02  -2.1972349367706458e-02  -2.1122024037142719e-02  -9.1294837628179710e-03  -9.8910674955067102e-03  -9.4191001917562685e-03  -2.5744414065467711e-02  -2.4282054203952227e-02  -2.6079433040698548e-02  -2.4007183802697604e-02  -2.5190288947942566e-02  -1.9063115663005926e-02  -1.9798075681408345e-02  -1.9949850189545090e-02  -2.2848033312306070e-02  -2.4036400660109519e-02  -2.4889705868760586e-02  -2.3911142441444263e-02  -2.2775713041318844e-02  -2.2928914705541658e-02  -2.2868129164279979e-02  -2.2175036576033397e-02  -2.2249337503584033e-02  -2.1959166202468433e-02  -2.1402090141536757e-02  -2.1852397078839927e-02  -2.1295540482532654e-02  -2.1632298218680169e-02  -2.1821816566823610e-02  -2.2200867645550362e-02  -2.1822065300976742e-02  -2.2852810609191667e-02  -2.2487682002931844e-02  -2.3503355424672686e-02  -2.3212677391776168e-02  -2.4474016315023460e-02  -2.3324704704299995e-02  -2.5120959635632642e-02  -2.2868825186636778e-02  -2.4668308952212514e-02  -2.2290602465550577e-02  -2.3362911638851673e-02  -2.1652090236876503e-02  -2.5430314345104128e-02  -2.4956917086491986e-02  -2.1266119298690170e-02  -1.9920496674364876e-02  -2.2367502899346550e-02  -2.1742046984884279e-02  -2.5552500020672393e-02  -2.1175395900512654e-02  -2.4584288638891869e-02  -2.0831687435719354e-02  -2.0225684066657937e-02  -2.2196764777640009e-02  -2.5336350312724749e-02  -2.0416770605745375e-02  -2.3705835749306545e-02  -2.0627944789712957e-02  -2.0685118488029456e-02  -2.0983285323781520e-02  -2.0327608926409821e-02  -2.2944693546245981e-02  -2.1612325515898177e-02  -2.1668586998649316e-02  -2.0921312359502522e-02  -2.2710384795779484e-02  -2.3560397171476410e-02  -2.0489793938158474e-02  -2.1233219652944800e-02  -1.6988841753256188e-02  -2.0213667020813883e-02  -2.1525300456905139e-02  -2.4341693744727132e-02  -2.2134018911814848e-02  -2.1253532768054830e-02  -1.7070