<?xml version="1.0"?>
<VTKFile type="UnstructuredGrid"  version="0.1"  >
<UnstructuredGrid>
<Piece  NumberOfPoints="1297" NumberOfCells="2496">
<Points>
<DataArray  type="Float64"  NumberOfComponents="3"  format="ascii">0 0 0  0 1 0  1 1 0  1 0 0  1.1 -0.1 0  -0.1 -0.1 0  1.1 1.1 0  -0.1 1.1 0  0.25 0.7 0  0.25 0.3 0  0.75 0.3 0  0.75 0.7 0  0.5 0.5 0  0 0.9499999999997918 0  0 0.8999999999995836 0  0 0.8499999999996529 0  0 0.7999999999999998 0  0 0.7500000000003466 0  0 0.7000000000006934 0  0 0.6500000000010401 0  0 0.6000000000013869 0  0 0.5500000000017335 0  0 0.5000000000020587 0  0 0.4500000000018723 0  0 0.4000000000016644 0  0 0.3500000000014564 0  0 0.3000000000012483 0  0 0.2500000000010403 0  0 0.2000000000008322 0  0 0.1500000000006241 0  0 0.100000000000416 0  0 0.05000000000020799 0  0.04999999999989965 0 0  0.09999999999981467 0 0  0.1499999999997036 0 0  0.1999999999995579 0 0  0.2499999999994121 0 0  0.2999999999992664 0 0  0.3499999999991206 0 0  0.3999999999989749 0 0  0.4499999999988292 0 0  0.4999999999986943 0 0  0.5499999999988151 0 0  0.5999999999989468 0 0  0.6499999999990784 0 0  0.69999999999921 0 0  0.7499999999993417 0 0  0.7999999999994734 0 0  0.8499999999996051 0 0  0.8999999999997368 0 0  0.9499999999998684 0 0  1 0.04999999999989965 0  1 0.09999999999981467 0  1 0.1499999999997036 0  1 0.1999999999995579 0  1 0.2499999999994121 0  1 0.2999999999992664 0  1 0.3499999999991206 0  1 0.3999999999989749 0  1 0.4499999999988292 0  1 0.4999999999986943 0  1 0.5499999999988151 0  1 0.5999999999989468 0  1 0.6499999999990784 0  1 0.69999999999921 0  1 0.7499999999993417 0  1 0.7999999999994734 0  1 0.8499999999996051 0  1 0.8999999999997368 0  1 0.9499999999998684 0  0.9499999999997918 1 0  0.8999999999995836 1 0  0.8499999999996529 1 0  0.7999999999999998 1 0  0.7500000000003466 1 0  0.7000000000006934 1 0  0.6500000000010401 1 0  0.6000000000013869 1 0  0.5500000000017335 1 0  0.5000000000020587 1 0  0.4500000000018723 1 0  0.4000000000016644 1 0  0.3500000000014564 1 0  0.3000000000012483 1 0  0.2500000000010403 1 0  0.2000000000008322 1 0  0.1500000000006241 1 0  0.100000000000416 1 0  0.05000000000020799 1 0  -0.1 1.05000000000004 0  -0.1 1.000000000000079 0  -0.1 0.9500000000001624 0  -0.1 0.9000000000003032 0  -0.1 0.850000000000444 0  -0.1 0.8000000000005848 0  -0.1 0.7500000000007256 0  -0.1 0.7000000000008665 0  -0.1 0.6500000000010508 0  -0.1 0.6000000000012352 0  -0.1 0.5500000000014196 0  -0.1 0.500000000001539 0  -0.1 0.4500000000014195 0  -0.1 0.4000000000013 0  -0.1 0.3500000000011588 0  -0.1 0.3000000000010178 0  -0.1 0.2500000000008986 0  -0.1 0.2000000000007579 0  -0.1 0.1500000000006174 0  -0.1 0.1000000000005272 0  -0.1 0.05000000000040083 0  -0.1 2.671196597248127e-13 0  -0.1 -0.0499999999998666 0  -0.0500000000000906 -0.1 0  -1.730560139634463e-13 -0.1 0  0.04999999999975802 -0.1 0  0.09999999999961506 -0.1 0  0.1499999999994613 -0.1 0  0.199999999999302 -0.1 0  0.2499999999991446 -0.1 0  0.2999999999990088 -0.1 0  0.3499999999988296 -0.1 0  0.3999999999986936 -0.1 0  0.4499999999985143 -0.1 0  0.4999999999984002 -0.1 0  0.5499999999985247 -0.1 0  0.5999999999986493 -0.1 0  0.6499999999987955 -0.1 0  0.6999999999989417 -0.1 0  0.7499999999990659 -0.1 0  0.7999999999992116 -0.1 0  0.8499999999993573 -0.1 0  0.8999999999994526 -0.1 0  0.949999999999584 -0.1 0  0.9999999999997226 -0.1 0  1.049999999999861 -0.1 0  1.1 -0.0500000000000906 0  1.1 -1.730560139634463e-13 0  1.1 0.04999999999975802 0  1.1 0.09999999999961506 0  1.1 0.1499999999994613 0  1.1 0.199999999999302 0  1.1 0.2499999999991446 0  1.1 0.2999999999990088 0  1.1 0.3499999999988296 0  1.1 0.3999999999986936 0  1.1 0.4499999999985143 0  1.1 0.4999999999984002 0  1.1 0.5499999999985247 0  1.1 0.5999999999986493 0  1.1 0.6499999999987955 0  1.1 0.6999999999989417 0  1.1 0.7499999999990659 0  1.1 0.7999999999992116 0  1.1 0.8499999999993573 0  1.1 0.8999999999994526 0  1.1 0.949999999999584 0  1.1 0.9999999999997226 0  1.1 1.049999999999861 0  1.05000000000004 1.1 0  1.000000000000079 1.1 0  0.9500000000001624 1.1 0  0.9000000000003032 1.1 0  0.850000000000444 1.1 0  0.8000000000005848 1.1 0  0.7500000000007256 1.1 0  0.7000000000008665 1.1 0  0.6500000000010508 1.1 0  0.6000000000012352 1.1 0  0.5500000000014196 1.1 0  0.500000000001539 1.1 0  0.4500000000014195 1.1 0  0.4000000000013 1.1 0  0.3500000000011588 1.1 0  0.3000000000010178 1.1 0  0.2500000000008986 1.1 0  0.2000000000007579 1.1 0  0.1500000000006174 1.1 0  0.1000000000005272 1.1 0  0.05000000000040083 1.1 0  2.671196597248127e-13 1.1 0  -0.0499999999998666 1.1 0  0.25 0.6750000000000718 0  0.25 0.6500000000001003 0  0.25 0.6250000000001721 0  0.25 0.6000000000002439 0  0.25 0.5750000000003158 0  0.25 0.5500000000003877 0  0.25 0.5250000000004595 0  0.25 0.5000000000005315 0  0.25 0.4750000000004732 0  0.25 0.450000000000404 0  0.25 0.4250000000003457 0  0.25 0.4000000000002657 0  0.25 0.3750000000002074 0  0.25 0.3500000000001274 0  0.25 0.3250000000000691 0  0.2750000000002428 0.3 0  0.3000000000004857 0.3 0  0.3250000000005897 0.3 0  0.3500000000005549 0.3 0  0.3750000000005203 0.3 0  0.4000000000004855 0.3 0  0.4250000000004509 0.3 0  0.4500000000004162 0.3 0  0.4750000000003816 0.3 0  0.5000000000003468 0.3 0  0.5250000000003121 0.3 0  0.5500000000002775 0.3 0  0.5750000000002429 0.3 0  0.6000000000002081 0.3 0  0.6250000000001734 0.3 0  0.6500000000001387 0.3 0  0.6750000000001041 0.3 0  0.7000000000000695 0.3 0  0.7250000000000347 0.3 0  0.75 0.3249999999999566 0  0.75 0.3499999999999349 0  0.75 0.374999999999859 0  0.75 0.3999999999997831 0  0.75 0.4249999999997072 0  0.75 0.4499999999996313 0  0.75 0.4749999999995552 0  0.75 0.499999999999501 0  0.75 0.5249999999995552 0  0.75 0.5499999999996311 0  0.75 0.5749999999996638 0  0.75 0.5999999999997396 0  0.75 0.6249999999998155 0  0.75 0.6499999999998698 0  0.75 0.6749999999999456 0  0.7250000000001388 0.7 0  0.7000000000002775 0.7 0  0.6750000000004163 0.7 0  0.650000000000555 0.7 0  0.6250000000006938 0.7 0  0.6000000000008324 0.7 0  0.5750000000009711 0.7 0  0.5500000000011098 0.7 0  0.5250000000012485 0.7 0  0.5000000000013763 0.7 0  0.4750000000012485 0.7 0  0.4500000000011097 0.7 0  0.425000000000971 0.7 0  0.4000000000008323 0.7 0  0.3750000000006936 0.7 0  0.3500000000005549 0.7 0  0.3250000000004161 0.7 0  0.3000000000002774 0.7 0  0.2750000000001387 0.7 0  0.3625000000005376 0.3216506350945809 0  0.2716506350946615 0.4375000000003748 0  0.3625000000005983 0.6783493649053163 0  0.2716506350945487 0.5625000000003519 0  0.7298578041089541 0.5869545682576782 0  0.6125000000007629 0.6793999717125546 0  0.6364370028799201 0.3212568444843676 0  0.7298692950848995 0.4367080367263547 0  0.7289196432072835 0.5118566471594022 0  0.5618022676303932 0.3199804332387257 0  0.4384775458562888 0.3217954273559854 0  0.4370183854511061 0.6786274251953534 0  0.537500000001177 0.6791204685111372 0  0.2716506350946051 0.4875000000005024 0  0.2698838014823512 0.3873892539152498 0  0.4876959187339661 0.3236082232121393 0  0.2758165379412325 0.6105013750595456 0  0.7245676476486494 0.3854610035147201 0  0.4875000000012859 0.6790921949956839 0  0.6626320517817996 0.6787105449228563 0  0.3119690964871606 0.3236160183770428 0  0.6883267532842998 0.3249319210947667 0  0.312704325440746 0.6784673322532694 0  0.7277062684510412 0.6389919140728562 0  0.2711089714757138 0.3378177136089722 0  0.273886495786019 0.6604376730605298 0  0.7123940657681799 0.6788306988736919 0  0.7297771952351747 0.3370894772395777 0  0.3375340542405701 0.6783690261299885 0  0.3504701088009146 0.6569701472531188 0  0.3750783514672964 0.6567439660510512 0  0.3625400193896208 0.6350711999211158 0  0.3880355522256436 0.6347616739765092 0  0.3745236578446536 0.6104011305656883 0  0.4047488227647703 0.6101558266247431 0  0.3882952343594766 0.5808106624829708 0  0.3449641107457422 0.6100932338007614 0  0.4248588075675906 0.5801366277400374 0  0.4041360999625675 0.5463230491658402 0  0.3619460504381689 0.5524912641870715 0  0.3803450126177088 0.5139094282666101 0  0.3411613306098 0.5162742073367618 0  0.3546811621201449 0.481937078938346 0  0.3961176429083791 0.4771705243947283 0  0.3733575980860546 0.4449961275209217 0  0.4115446037794655 0.440746921336608 0  0.3892873464495575 0.410446229565641 0  0.424672804171038 0.4005686307542695 0  0.3528132094448204 0.4102241892014687 0  0.3980794451602568 0.3796389079610851 0  0.4342296618747961 0.6112636945320825 0  0.4623539763388186 0.5869074059414549 0  0.4822091359743803 0.6110496501756888 0  0.5023409394383486 0.5881724304245167 0  0.5215380551510027 0.6112496863944762 0  0.5413705822998095 0.5888605489017542 0  0.560346998261202 0.6125425290346617 0  0.5798072396416034 0.5905793524057138 0  0.5996148933722154 0.6171999729690073 0  0.6174461631021504 0.5863894323327914 0  0.5996166391868299 0.5531224378180403 0  0.6371185926952841 0.5539574774564238 0  0.617337753931096 0.5186356947033618 0  0.6539534863868566 0.5861826101845617 0  0.6714721464048738 0.5584699296171862 0  0.5834956430800461 0.6408371152831209 0  0.461103867610972 0.6433032100134046 0  0.3254651704375855 0.5472985143884931 0  0.3087796650090536 0.5236631168668953 0  0.4384423617695056 0.3719971850576776 0  0.4604515476360581 0.3941615617799146 0  0.400102317282737 0.656658532394141 0  0.4182580247154588 0.352667578196769 0  0.5015834728456928 0.6418390107022101 0  0.5393942569970557 0.6451543482527893 0  0.4765961934260316 0.3641044964037194 0  0.4975230894373432 0.3942462869862688 0  0.5095908450971369 0.3607707872680521 0  0.5300313459876759 0.3881898306902424 0  0.522344070909072 0.4245160114284157 0  0.5573832718212811 0.409066987251366 0  0.5706662975159743 0.3835553051415836 0  0.595194167354671 0.3979188708735508 0  0.5870749723890771 0.4443317283151706 0  0.6219624333954561 0.4243187165840671 0  0.6294612724708456 0.3908034350785912 0  0.6524282332012185 0.411261759131731 0  0.647912885441465 0.4408050875132708 0  0
[...]
<PointData  Scalars="state"> 
<DataArray  type="Float64"  Name="state"  format="ascii">0.0000000000000000e+00  0.0000000000000000e+00  0.0000000000000000e+00  0.0000000000000000e+00  0.0000000000000000e+00  0.0000000000000000e+00  0.0000000000000000e+00  0.0000000000000000e+00  -2.3927527666608689e-02  -2.3897020788655195e-02  -2.4085932463242008e-02  -2.4114649140911507e-02  1.2128942234805642e+00  0.0000000000000000e+00  0.0000000000000000e+00  0.0000000000000000e+00  0.0000000000000000e+00  0.0000000000000000e+00  0.0000000000000000e+00  0.0000000000000000e+00  0.0000000000000000e+00  0.0000000000000000e+00  0.0000000000000000e+00  0.0000000000000000e+00  0.0000000000000000e+00  0.0000000000000000e+00  0.0000000000000000e+00  0.0000000000000000e+00  0.0000000000000000e+00  0.0000000000000000e+00  0.0000000000000000e+00  0.0000000000000000e+00  0.0000000000000000e+00  0.0000000000000000e+00  0.0000000000000000e+00  0.0000000000000000e+00  0.0000000000000000e+00  0.0000000000000000e+00  0.0000000000000000e+00  0.0000000000000000e+00  0.0000000000000000e+00  0.0000000000000000e+00  0.0000000000000000e+00  0.0000000000000000e+00  0.0000000000000000e+00  0.0000000000000000e+00  0.0000000000000000e+00  0.0000000000000000e+00  0.0000000000000000e+00  0.0000000000000000e+00  0.0000000000000000e+00  0.0000000000000000e+00  0.0000000000000000e+00  0.0000000000000000e+00  0.0000000000000000e+00  0.0000000000000000e+00  0.0000000000000000e+00  0.0000000000000000e+00  0.0000000000000000e+00  0.0000000000000000e+00  0.0000000000000000e+00  0.0000000000000000e+00  0.0000000000000000e+00  0.0000000000000000e+00  0.0000000000000000e+00  0.0000000000000000e+00  0.0000000000000000e+00  0.0000000000000000e+00  0.0000000000000000e+00  0.0000000000000000e+00  0.0000000000000000e+00  0.0000000000000000e+00  0.0000000000000000e+00  0.0000000000000000e+00  0.0000000000000000e+00  0.0000000000000000e+00  0.0000000000000000e+00  0.0000000000000000e+00  0.0000000000000000e+00  0.0000000000000000e+00  0.0000000000000000e+00  0.0000000000000000e+00  0.0000000000000000e+00  0.0000000000000000e+00  0.0000000000000000e+00  0.0000000000000000e+00  0.0000000000000000e+00  0.0000000000000000e+00  0.0000000000000000e+00  0.0000000000000000e+00  0.0000000000000000e+00  0.0000000000000000e+00  0.0000000000000000e+00  0.0000000000000000e+00  0.0000000000000000e+00  0.0000000000000000e+00  0.0000000000000000e+00  0.0000000000000000e+00  0.0000000000000000e+00  0.0000000000000000e+00  0.0000000000000000e+00  0.0000000000000000e+00  0.0000000000000000e+00  0.0000000000000000e+00  0.0000000000000000e+00  0.0000000000000000e+00  0.0000000000000000e+00  0.0000000000000000e+00  0.0000000000000000e+00  0.0000000000000000e+00  0.0000000000000000e+00  0.0000000000000000e+00  0.0000000000000000e+00  0.0000000000000000e+00  0.0000000000000000e+00  0.0000000000000000e+00  0.0000000000000000e+00  0.0000000000000000e+00  0.0000000000000000e+00  0.0000000000000000e+00  0.0000000000000000e+00  0.0000000000000000e+00  0.0000000000000000e+00  0.0000000000000000e+00  0.0000000000000000e+00  0.0000000000000000e+00  0.0000000000000000e+00  0.0000000000000000e+00  0.0000000000000000e+00  0.0000000000000000e+00  0.0000000000000000e+00  0.0000000000000000e+00  0.0000000000000000e+00  0.0000000000000000e+00  0.0000000000000000e+00  0.0000000000000000e+00  0.0000000000000000e+00  0.0000000000000000e+00  0.0000000000000000e+00  0.0000000000000000e+00  0.0000000000000000e+00  0.0000000000000000e+00  0.0000000000000000e+00  0.0000000000000000e+00  0.0000000000000000e+00  0.0000000000000000e+00  0.0000000000000000e+00  0.0000000000000000e+00  0.0000000000000000e+00  0.0000000000000000e+00  0.0000000000000000e+00  0.0000000000000000e+00  0.0000000000000000e+00  0.0000000000000000e+00  0.0000000000000000e+00  0.0000000000000000e+00  0.0000000000000000e+00  0.0000000000000000e+00  0.0000000000000000e+00  0.0000000000000000e+00  0.0000000000000000e+00  0.0000000000000000e+00  0.0000000000000000e+00  0.0000000000000000e+00  0.0000000000000000e+00  0.0000000000000000e+00  0.0000000000000000e+00  0.0000000000000000e+00  0.0000000000000000e+00  0.0000000000000000e+00  0.0000000000000000e+00  0.0000000000000000e+00  0.0000000000000000e+00  0.0000000000000000e+00  0.0000000000000000e+00  0.0000000000000000e+00  0.0000000000000000e+00  0.0000000000000000e+00  0.0000000000000000e+00  0.0000000000000000e+00  0.0000000000000000e+00  -2.0426900381921943e-02  -1.7332985234761299e-02  -1.2485650761658664e-02  -8.1760742911739150e-03  -5.2575635189455235e-03  -2.8192949974410780e-03  -1.3576854601542690e-03  -1.5605017006585964e-03  -6.6707545157280014e-04  -2.3532501260002748e-03  -5.5853357005587303e-03  -8.7611752648273714e-03  -1.2379281980726383e-02  -1.6770726611136561e-02  -2.0142359907480225e-02  -2.1505280412800046e-02  -1.8456277275553021e-02  -1.4619842634821396e-02  -1.0518654012979639e-02  -7.9320793094495301e-03  -4.4134603408979081e-03  -2.5617774874922969e-03  -1.8066852200136557e-03  -2.0769144822491961e-04  -1.6663530622433663e-04  -6.0928402246028784e-04  -1.1449215366691734e-03  -3.3993304275260557e-03  -3.9353479391708171e-03  -8.2312127101637229e-03  -1.1489895813046399e-02  -1.4996638090695675e-02  -1.8422474170898352e-02  -2.1574531813593666e-02  -2.0810191453495688e-02  -1.7243217849429820e-02  -1.2606162186685746e-02  -8.1006072070666044e-03  -5.4742771201560219e-03  -3.1380346592734670e-03  -1.6921511891817970e-03  -6.4735887421943578e-04  -5.6444649062460184e-04  -2.4324528592548638e-03  -4.8439141157305601e-03  -7.5033099276235662e-03  -1.2533248025306162e-02  -1.7130587713869539e-02  -2.0772238919302567e-02  -2.1512466504181180e-02  -1.8679957828335602e-02  -1.5459817786011000e-02  -1.1815328296331234e-02  -8.5896366439832620e-03  -4.3852970883943845e-03  -3.5723037338797029e-03  -1.0628975672234470e-03  -4.0393740010242704e-04  -1.9420554101602015e-04  -5.8778472585855322e-04  -1.4993855801491293e-03  -1.9974540322605780e-03  -4.6439967258527989e-03  -8.1227742312229220e-03  -1.0725949773919439e-02  -1.4823027545975455e-02  -1.8657363977669438e-02  -2.1563750515836432e-02  5.3307517838772737e-02  6.1018470966068827e-02  5.2988878111491729e-02  6.1131550583981523e-02  5.4337373552152332e-02  5.7658661099234516e-02  5.2816267315841360e-02  5.9102627616569613e-02  6.4121909723784093e-02  6.5822023977781807e-02  6.8583848277916012e-02  6.6834096168594648e-02  6.8320957793471235e-02  6.5690486279487356e-02  4.4262498298140669e-02  7.4925893454306822e-02  5.0884257191467858e-02  4.8267734195451946e-02  6.9863385447702070e-02  4.2976609219786736e-02  3.0912730726970667e-02  3.1964037569129009e-02  2.9489650554892954e-02  3.1306132946254117e-02  1.6892313406776736e-02  1.9373253349602895e-02  1.6508901507197509e-02  1.7003676752783421e-02  4.2785656215922757e-02  8.1332669973319976e-02  9.4172048606452202e-02  1.7586466299152248e-01  1.9804200011747231e-01  4.5976449522089824e-01  5.4274884465226170e-01  7.1800153297055935e-01  3.6621033251467128e-01  8.5032336405812858e-01  9.0864997776057643e-01  7.2490463153220241e-01  8.7600089496596056e-01  5.7948131060334840e-01  7.4876494580110564e-01  9.3704620777699843e-01  7.5530379574846829e-01  8.9050654894252224e-01  6.9149525197428352e-01  7.3076163929910043e-01  5.7007095590284651e-01  3.7187333787005422e-01  5.7119340986834166e-01  8.8201490887648615e-01  6.1012049506361943e-01  8.8534627961426338e-01  6.1985947568510003e-01  8.5888609880879452e-01  5.5870238611333145e-01  7.8677969003474468e-01  4.2454002529018015e-01  6.8696982245604654e-01  8.6566464997206094e-01  7.2140070725766925e-01  8.8114100162850117e-01  5.2117194428153590e-01  3.3063960022086769e-01  1.8955021123350213e-01  1.9696509349854638e-01  3.0890612232974735e-01  1.7207750541330419e-01  2.9800807632488951e-01  6.9149121988645712e-01  1.0764504996379633e-01  1.5456366720816136e-01  2.1064772108993424e-01  1.8384146724611081e-01  2.2969304887326894e-01  6.9428272921986200e-01  2.0397574504161481e-01  5.8843890075880145e-01  9.5502276540808362e-01  8.3393697176989401e-01  4.7152766803024515e-01  6.4960607039066243e-01  9.1585777700940196e-01  7.0044055230777313e-01  4.6902732393173119e-01  5.2889539075021463e-01  6.3708580085984756e-01  2.6993180864824567e-01  1.9124269946292194e-01  9.8164632078980948e-02  1.0176239837251781e-01  1.0580220078642064e+00  1.5535169584243241e-01  2.3022422316331961e-01  1.2117410834490365e-01  1.7439710263152117e-01  9.2415551898362605e-02  7.6386568876269684e-02  1.3660265455784970e-01  2.0631054685840305e-01  1.1255254679643847e-01  9.0827394623880467e-02  1.3615145835356493e-01  4.2485503909731553e-01  2.1875380228303157e-01  2.3570018430242701e-01  2.9537319568039633e-01  1.4583727455033563e-01  1.1594268711654086e-01  8.5923373932001307e-02  1.4165307094045601e-01  1.0401021250606851e-01  1.5638334218152330e-01  8.0648648742359552e-02  4.0113891354577164e-01  1.0676470537841545e+00  8.8980859163313150e-02  1.0911022845528739e+00  6.0774331174713414e-01  1.9102979075341922e-01  5.0619080799061023e-01  1.9476294752676784e-01  1.0596588868871175e-01  9.3840315633846066e-02  1.6016909971180812e-01  3.7558253658261503e-01  1.6116735230364559e-01  1.2329653307601576e-01  9.6520793852962616e-01  5.1444567716089407e-02  4.3042840712796231e-02  3.6824926172547673e-01  1.3634724188545713e-01  1.6903608545037369e-01  2.1078018468374779e-01  1.4733314529119571e-01  9.0840044424844474e-02  1.9288302910066438e-01  1.0778884115810464e-01  8.6303960284004902e-02  5.5301131069863139e-02  2.8429041221874229e-02  4.4169728236716686e-02  1.0546528776973879e-01  7.3103310952620140e-02  6.7929603533988261e-02  5.6386135133350376e-02  2.5346485811522754e-02  3.0677214007382120e-02  6.3271237818896542e-02  1.1348691550980927e-01  2.1508555633481205e-01  4.9297620389228594e-02  5.8696738213631520e-02  6.8593703209032963e-02  4.4204689173833342e-02  7.1330020269831318e-02  7.0463122872320413e-02  5.8121339299645081e-02  3.2434242871447000e-02  5.2076237203539648e-02  6.7910348046901367e-02  5.6203888404125275e-02  8.7946031839127289e-02  6.2379697436559703e-02  9.5851704343882460e-02  6.5584979761856357e-02  5.1326092824809856e-02  2.9394099191205381e-02  2.6761737028104617e-02  8.6142566995006539e-02  1.4504703163477822e-01  5.2454542358592940e-02  5.8772408810630304e-02  8.2671774649191163e-02  1.6415678625361575e-02  1.6536933477552640e-02  1.6598767400523851e-02  1.6816676864040283e-02  6.2192328534429166e-02  9.6248795988724789e-01  1.0965958561321725e+00  1.1294931074897860e-01  5.6961360210949559e-02  5.3058460072459339e-02  5.1265221968276369e-02  3.0276264855708560e-02  6.5171830027736188e-02  7.5035775352805478e-02  1.1597750509820398e-01  2.7040840457657656e-01  6.8718477727616439e-02  2.1310710572371497e-01  1.0739584598066356e+00  1.0365385384177426e+00  7.9235365955918446e-01  1.3426243428767901e-01  7.6265833933275878e-02  1.1068410977476853e-01  9.9981059421362095e-02  1.1176539427829477e-01  6.3914969562221827e-02  6.2149552734476976e-02  1.0067320092810117e+00  4.4923411089762069e-02  1.0453027322963232e-01  9.6212758219390002e-02  2.8246900470534081e-01  7.6429822840203457e-02  2.1400953355881824e-01  8.2984009661475722e-01  5.9535148270685130e-02  1.1368651469640336e+00  6.0781096436980719e-01  2.0719745943809896e-02  2.0503572095630043e-01  1.0777748407497208e-01  1.0071522300764363e-01  9.6724006312829958e-01  6.2337433532371658e-02  8.6415451734104087e-02  1.0588241729167293e-01  1.1812577557909316e+00  9.9110548122122763e-02  1.6065680091613449e-01  1.0961220147963882e+00  3.7551321158709899e-01  1.1189272539376453e-01  1.1744627620384529e+00  1.9185607300762675e-01  8.6247690188531401e-02  7.7962156165431035e-02  1.6752108824065653e-01  2.6059331127843427e-01  1.0384301249447202e-01  5.3967147930587787e-02  1.9890724447928751e-01  1.7832093110618980e-02  1.7907769165804287e-02  1.7307329396986319e-02  1.7934565122853217e-02  1.0132425955227234e-01  4.6603068397315282e-02  8.2430244707385927e-02  6.3891040460457613e-02  9.9460595496626766e-02  3.8063865016624510e-01  5.6997865643508505e-02  8.1728696094195613e-02  3.0296162895676282e-01  4.0216918966000859e-01  2.6782128539086925e-01  4.1763315665360246e-01  7.7755691739578567e-02  4.0507496189470560e-01  1.5519233864623680e-01  7.1207819603137723e-01  1.1369711824560949e+00  1.5841653898852376e-01  2.8887824382623056e-01  1.9146942443700612e-01  1.0394466281730176e-01  4.3675284148737448e-01  4.1397107338477623e-01  1.0842661391069084e+00  3.0528427452495597e-02  -1.4781036939497626e-02  -1.5013755907223720e-02  -1.8797172802949260e-02  -2.3662766229843268e-02  -1.8788711790037032e-02  -2.3916684958047000e-02  -1.5050963520841606e-02  -1.8236998842314278e-02  -1.5042973730596673e-02  -1.8566333122979645e-02  -2.3685167050572210e-02  -2.3694375639040071e-02  -1.3717394221104214e-02  -1.3093525836706416e-02  -1.4263819198450770e-02  -1.3404274065593297e-02  -1.4134886679909947e-02  -2.1217477231143266e-02  -2.1288734866599542e-02  -1.4024068408061790e-02  -2.4962701065986314e-02  -2.5898120730515117e-02  -1.5239459002275472e-02  -1.5091209489651820e-02  -2.3382286783332235e-02  -2.5311734952137063e-02  -2.6125219670306572e-02  -2.6576328900686685e-02  -2.6540366077451392e-02  -2.6939140073917556e-02  -1.5402751205357296e-02  -1.4967239690496213e-02  -1.5323755633571079e-02  -1.4996435602245379e-02  -1.4030417166183990e-02  -1.3966603699511930e-02  -1.4064959668329944e-02  -2.6528933269285682e-02  -2.6989839444337180e-02  -2.5467970593289049e-02  -2.4680077930576104e-02  -1.4089147612143195e-02  -1.4139239279199146e-02  -1.4069422021666481e-02  -1.3619914061249436e-02  -1.3718148013407927e-02  -1.3541025843849797e-02  -1.4575607724951270e-02  -1.4590236004339193e-02  -2.4384496610153895e-02  -2.3660198783882761e-02  -1.5033211735060573e-02  -1.4600909220814850e-02  -1.5011319318639443e-02  -2.5911683775222478e-02  -2.6105360879542960e-02  -2.6516692629564641e-02  -2.6611685808711427e-02  -2.6930710173682725e-02  -2.6650344908443452e-02  -2.6312097288241822e-02  -2.6728589030854930e-02  -2.6959410301492088e-02  -2.5981193045511910e-02  -2.5907990777079035e-02  -2.6128389288809319e-02  -2.6527794277420351e-02  -2.6598719451586074e-02  -2.5997729049666119e-02  -2.6929105183417557e-02  -2.6623525795189323e-02  -2.6728606416615449e-02  -2.6979604172728777e-02  -2.6003383003398845e-02  -1.8495177438038291e-02  -2.4909921187126899e-02  -2.5870833062158646e-02  -2.5293858571619917e-02  -2.6109916677225682e-02  -2.6538203971079487e-02  -2.6522173128132123e-02  -2.6918539243835814e-02  -2.6526650211562471e-02  -2.6847041709639086e-02  -1.2929863907123137e-02  -1.3564612101249504e-02  -1.6886262035740885e-02  -1.7004928896126644e-02  -2.5877378522929876e-02  -2.6306824767739455e-02  -2.6561897134410713e-02  -2.5950194707524816e-02  -2.6334440927889995e-02  -2.6716634027953608e-02  -1.4017115072554003e-02  -2.6007672380696501e-02  -2.6979567947110310e-02  -2.5935034752612426e-02  -2.6041025469063811e-02  -2.6900553746412221e-02  -2.5918059170847864e-02  -1.8415087000739069e-02  -2.4887379542964414e-02  -2.4965123063336467e-02  -1.2203984198374207e-02  -1.1914578392686030e-02  -1.2126175019401445e-02  -2.4416706115103486e-02  -2.4646483034823776e-02  -2.2685167714562780e-02  -2.2106724812344384e-02  -2.5572417702645938e-02  -2.6488857092350444e-02  -2.5553054301481713e-02  -2.6442956773456382e-02  -2.5083256283256607e-02  -2.6351512689686243e-02  -2.4981253282638217e-02  -2.5984999285734698e-02  -2.4670971709083570e-02  -2.5282968578918277e-02  -2.5148957640055040e-02  -2.6355250000857661e-02  -2.4958768205310879e-02  -2.5841691256902881e-02  -2.4602729918975365e-02  -2.5255619992150560e-02  -2.4180140491402990e-02  -2.4718379344183007e-02  -2.3824196199073593e-02  -2.4355212692773517e-02  -2.3575120497820453e-02  -2.4198805490062099e-02  -2.3480900728079908e-02  -2.4280673327096075e-02  -2.4205389606262073e-02  -2.4738061591099314e-02  -2.3832352203903253e-02  -2.4363964996087284e-02  -2.3575002421198143e-02  -2.4211180827678491e-02  -2.3463839515355814e-02  -2.4295176692338185e-02  -2.4284015007576445e-02  -2.3998480996463081e-02  -2.6700826093419529e-02  -2.6736962335381944e-02  -2.4269043857370567e-02  -2.3829136976798740e-02  -2.3628254244322366e-02  -2.4590787380498153e-02  -2.3833829487352895e-02  -2.5004310891199037e-02  -2.4042736722724452e-02  -2.3612553431187573e-02  -2.4588141262131671e-02  -2.3804417716292374e-02  -2.5002919261205625e-02  -2.4034692586239630e-02  -2.5710369477654409e-02  -2.4417200895665517e-02  -2.3815906666245459e-02  -2.4175065153734299e-02  -2.4945215550945150e-02  -2.4131669340164256e-02  -2.4892261878108002e-02  -2.3061081327811803e-02  -2.2866000341506373e-02  -2.3130393447246066e-02  -2.2940204107377900e-02  -2.3490416125158616e-02  -2.2089420185024484e-02  -2.3443233090649242e-02  -2.4513823678786909e-02  -2.3184329370739287e-02  -2.1794950255885827e-02  -2.2064936321374358e-02  -2.4594695494170326e-02  -2.2905855893063008e-02  -2.4939136829405118e-02  -2.1606100095953810e-02  -2.4935665640995443e-02  -2.0196762639022571e-02  -2.0370724420112431e-02  -1.9661993690097520e-02  -2.1507915492852685e-02  -2.0940127029379269e-02  -2.2760349017699254e-02  -1.8262581405228153e-02  -2.6687751091352473e-02  -9.5606683249995512e-03  -2.3562267201539405e-02  -2.6803800853009777e-02  -2.2588668563733989e-02  -1.9227870409896586e-02  -2.0527977876628321e-02  -2.2574596393327477e-02  -2.6029796105036765e-02  -2.6036540595373085e-02  -2.4118995012670390e-02  -2.4678171037091173e-02  -2.3710857482578795e-02  -2.3732855036823892e-02  -2.2797558026301158e-02  -2.2317539405619900e-02  -2.1567362498699966e-02  -2.3370316419650282e-02  -2.1663405148440690e-02  -2.0783512925530843e-02  -2.0401880129355517e-02  -2.0102792217263313e-02  -1.9610067600661234e-02  -1.9707955516564197e-02  -1.9202782344595271e-02  -2.2135360959829591e-02  -2.2254681890735605e-02  -2.1033065901583641e-02  -2.2808562953089105e-02  -2.0967966119502485e-02  -2.0025391712745286e-02  -1.8674098921899085e-02  -1.9610508204171921e-02  -2.1552344968784682e-02  -2.1861519090798448e-02  -1.9018092406854818e-02  -9.0909037782811800e-03  -9.8473936850466490e-03  -9.3687301662025383e-03  -2.5386490360766588e-02  -2.4744835927814332e-02  -2.4922801133303838e-02  -2.2795816570884270e-02  -2.3759389444294909e-02  -1.8450188955881752e-02  -1.9415526995474726e-02  -1.9311740353611207e-02  -2.1347352799739001e-02  -2.2372532286415392e-02  -2.3348504172348818e-02  -2.2112194867488017e-02  -2.0889816422806590e-02  -2.0876314685856625e-02  -2.1059570709187424e-02  -2.0061269356345609e-02  -2.0115780042000337e-02  -1.9659153957906111e-02  -1.9242181528106118e-02  -1.9570080312468232e-02  -1.9022395568781953e-02  -1.9311617845671706e-02  -1.9614570259119949e-02  -1.9956440981366088e-02  -1.9697160573141522e-02  -2.0751812219923928e-02  -2.0536279124411451e-02  -2.1583065349566929e-02  -2.1313800438576020e-02  -2.2697928498894716e-02  -2.1615003787801949e-02  -2.3607868566327003e-02  -2.1361403999623076e-02  -2.3408857764964486e-02  -2.3236437432901772e-02  -2.4448959717018229e-02  -2.2448646759378566e-02  -2.6280139385534525e-02  -2.5852644151153098e-02  -1.9399299232601336e-02  -1.8700685281992750e-02  -2.3185223072443022e-02  -2.2407504932934551e-02  -2.6265857723610377e-02  -1.9285997228864701e-02  -2.5800902146141544e-02  -1.8807044633601659e-02  -2.1116735869598398e-02  -2.0483993398834818e-02  -2.3926160242439969e-02  -1.9180209909091962e-02  -2.2654630800642783e-02  -1.8613161214996104e-02  -2.1851667244608599e-02  -2.1921624508597845e-02  -2.1042866477851065e-02  -2.1395682604939965e-02  -2.0714058054396588e-02  -1.9917691011294768e-02  -1.9003757338633197e-02  -2.1133456394340860e-02  -2.1892016052422785e-02  -2.1765185480550307e-02  -2.2304342593387188e-02  -1.5816208709758708e-02  -1.8164809053785775e-02  -1.9676143146701998e-02  -2.3396837510791853e-02  -2.0943135908267234e-02  -2.1682577094144815e-02  -1.7308