<?xml version="1.0"?>
<VTKFile type="UnstructuredGrid"  version="0.1"  >
<UnstructuredGrid>
<Piece  NumberOfPoints="1297" NumberOfCells="2496">
<Points>
<DataArray  type="Float64"  NumberOfComponents="3"  format="ascii">0 0 0  0 1 0  1 1 0  1 0 0  1.1 -0.1 0  -0.1 -0.1 0  1.1 1.1 0  -0.1 1.1 0  0.2661742289547471 0.6951953035796437 0  0.2661356034758286 0.3053585967894308 0  0.7339197184668358 0.3049146697351267 0  0.7335257022494408 0.695295618421091 0  0.499960263477538 0.5001761744267978 0  0 0.9499999999997918 0  0 0.8999999999995836 0  0 0.8499999999996529 0  0 0.7999999999999998 0  0 0.7500000000003466 0  0 0.7000000000006934 0  0 0.6500000000010401 0  0 0.6000000000013869 0  0 0.5500000000017335 0  0 0.5000000000020587 0  0 0.4500000000018723 0  0 0.4000000000016644 0  0 0.3500000000014564 0  0 0.3000000000012483 0  0 0.2500000000010403 0  0 0.2000000000008322 0  0 0.1500000000006241 0  0 0.100000000000416 0  0 0.05000000000020799 0  0.04999999999989965 0 0  0.09999999999981467 0 0  0.1499999999997036 0 0  0.1999999999995579 0 0  0.2499999999994121 0 0  0.2999999999992664 0 0  0.3499999999991206 0 0  0.3999999999989749 0 0  0.4499999999988292 0 0  0.4999999999986943 0 0  0.5499999999988151 0 0  0.5999999999989468 0 0  0.6499999999990784 0 0  0.69999999999921 0 0  0.7499999999993417 0 0  0.7999999999994734 0 0  0.8499999999996051 0 0  0.8999999999997368 0 0  0.9499999999998684 0 0  1 0.04999999999989965 0  1 0.09999999999981467 0  1 0.1499999999997036 0  1 0.1999999999995579 0  1 0.2499999999994121 0  1 0.2999999999992664 0  1 0.3499999999991206 0  1 0.3999999999989749 0  1 0.4499999999988292 0  1 0.4999999999986943 0  1 0.5499999999988151 0  1 0.5999999999989468 0  1 0.6499999999990784 0  1 0.69999999999921 0  1 0.7499999999993417 0  1 0.7999999999994734 0  1 0.8499999999996051 0  1 0.8999999999997368 0  1 0.9499999999998684 0  0.9499999999997918 1 0  0.8999999999995836 1 0  0.8499999999996529 1 0  0.7999999999999998 1 0  0.7500000000003466 1 0  0.7000000000006934 1 0  0.6500000000010401 1 0  0.6000000000013869 1 0  0.5500000000017335 1 0  0.5000000000020587 1 0  0.4500000000018723 1 0  0.4000000000016644 1 0  0.3500000000014564 1 0  0.3000000000012483 1 0  0.2500000000010403 1 0  0.2000000000008322 1 0  0.1500000000006241 1 0  0.100000000000416 1 0  0.05000000000020799 1 0  -0.1 1.05000000000004 0  -0.1 1.000000000000079 0  -0.1 0.9500000000001624 0  -0.1 0.9000000000003032 0  -0.1 0.850000000000444 0  -0.1 0.8000000000005848 0  -0.1 0.7500000000007256 0  -0.1 0.7000000000008665 0  -0.1 0.6500000000010508 0  -0.1 0.6000000000012352 0  -0.1 0.5500000000014196 0  -0.1 0.500000000001539 0  -0.1 0.4500000000014195 0  -0.1 0.4000000000013 0  -0.1 0.3500000000011588 0  -0.1 0.3000000000010178 0  -0.1 0.2500000000008986 0  -0.1 0.2000000000007579 0  -0.1 0.1500000000006174 0  -0.1 0.1000000000005272 0  -0.1 0.05000000000040083 0  -0.1 2.671196597248127e-13 0  -0.1 -0.0499999999998666 0  -0.0500000000000906 -0.1 0  -1.730560139634463e-13 -0.1 0  0.04999999999975802 -0.1 0  0.09999999999961506 -0.1 0  0.1499999999994613 -0.1 0  0.199999999999302 -0.1 0  0.2499999999991446 -0.1 0  0.2999999999990088 -0.1 0  0.3499999999988296 -0.1 0  0.3999999999986936 -0.1 0  0.4499999999985143 -0.1 0  0.4999999999984002 -0.1 0  0.5499999999985247 -0.1 0  0.5999999999986493 -0.1 0  0.6499999999987955 -0.1 0  0.6999999999989417 -0.1 0  0.7499999999990659 -0.1 0  0.7999999999992116 -0.1 0  0.8499999999993573 -0.1 0  0.8999999999994526 -0.1 0  0.949999999999584 -0.1 0  0.9999999999997226 -0.1 0  1.049999999999861 -0.1 0  1.1 -0.0500000000000906 0  1.1 -1.730560139634463e-13 0  1.1 0.04999999999975802 0  1.1 0.09999999999961506 0  1.1 0.1499999999994613 0  1.1 0.199999999999302 0  1.1 0.2499999999991446 0  1.1 0.2999999999990088 0  1.1 0.3499999999988296 0  1.1 0.3999999999986936 0  1.1 0.4499999999985143 0  1.1 0.4999999999984002 0  1.1 0.5499999999985247 0  1.1 0.5999999999986493 0  1.1 0.6499999999987955 0  1.1 0.6999999999989417 0  1.1 0.7499999999990659 0  1.1 0.7999999999992116 0  1.1 0.8499999999993573 0  1.1 0.8999999999994526 0  1.1 0.949999999999584 0  1.1 0.9999999999997226 0  1.1 1.049999999999861 0  1.05000000000004 1.1 0  1.000000000000079 1.1 0  0.9500000000001624 1.1 0  0.9000000000003032 1.1 0  0.850000000000444 1.1 0  0.8000000000005848 1.1 0  0.7500000000007256 1.1 0  0.7000000000008665 1.1 0  0.6500000000010508 1.1 0  0.6000000000012352 1.1 0  0.5500000000014196 1.1 0  0.500000000001539 1.1 0  0.4500000000014195 1.1 0  0.4000000000013 1.1 0  0.3500000000011588 1.1 0  0.3000000000010178 1.1 0  0.2500000000008986 1.1 0  0.2000000000007579 1.1 0  0.1500000000006174 1.1 0  0.1000000000005272 1.1 0  0.05000000000040083 1.1 0  2.671196597248127e-13 1.1 0  -0.0499999999998666 1.1 0  0.2644053418796555 0.6740325307693608 0  0.2646767721063116 0.6506175310705652 0  0.2657224847138625 0.6263745619253542 0  0.2666863874758093 0.601447275699033 0  0.2674455130256438 0.5761206563661385 0  0.2677629982402457 0.5507147353664632 0  0.2675445014946686 0.5254542486640076 0  0.2676029941827794 0.5003154439398116 0  0.2677535362619344 0.4750666864048889 0  0.2677345144017114 0.4497090839221941 0  0.2672809011376509 0.4242726543817623 0  0.2664795064253779 0.3989737594820373 0  0.2655078723558152 0.3741788416139809 0  0.2645975329817356 0.3499936067878905 0  0.2643589198071731 0.3265511035302629 0  0.2871276219498343 0.3020493079208112 0  0.3102547810032626 0.3002186532556968 0  0.3342890087335232 0.2985010311715428 0  0.3589198956045785 0.2959937632112666 0  0.3835690263499064 0.2921533405172339 0  0.4076022220433876 0.2873561719047011 0  0.4310072125237506 0.2824139300284528 0  0.4539523586082325 0.2780646257263262 0  0.476924852342811 0.2746403179971911 0  0.500056724294321 0.2731926039156448 0  0.5231816680424868 0.2740464176332177 0  0.5462227427454575 0.2770383157370765 0  0.568999648825842 0.2817095386392213 0  0.5924509028927372 0.2864399519841163 0  0.6163657298133437 0.2912223848410813 0  0.6409733084336657 0.2950328661679739 0  0.6656347238315442 0.2977107917259698 0  0.6896846928175797 0.2996363444880145 0  0.7128536738620679 0.3015849447771045 0  0.7356535855095547 0.3262143449968729 0  0.735441530003797 0.3496479638227197 0  0.7345030502555381 0.3739262696996381 0  0.7334680660860264 0.3988581251401708 0  0.7326747348880567 0.4241961777092729 0  0.7321742673500113 0.4495836050873304 0  0.7318300940056955 0.4748279741994959 0  0.7314175646176229 0.5000274990418445 0  0.7309811234764321 0.5252639538975247 0  0.7310466329645988 0.5505834651378427 0  0.7314305115217078 0.5759991380357453 0  0.7323282685523133 0.6013633248594268 0  0.7337538654774344 0.6263128209868704 0  0.734880007659783 0.6505803437176808 0  0.7351903441373988 0.6739994424492339 0  0.7124914782378505 0.6986592165367316 0  0.6893760735026254 0.7006466046098382 0  0.6653578136085557 0.7026025447180966 0  0.6407363428406907 0.7053016220993307 0  0.6161488983112466 0.7091094692590828 0  0.5922641450774599 0.7139261284672298 0  0.5688835834331772 0.7188131916918562 0  0.546110802485525 0.7236318204276113 0  0.5230927668058024 0.7268887545689591 0  0.4999069438523376 0.7280115346885787 0  0.4767319553982776 0.7268419919478237 0  0.4537332775032244 0.7236563100841303 0  0.430753849744014 0.719259204982762 0  0.4075895920085848 0.7139481810536323 0  0.3837397749691761 0.7089809960973681 0  0.3590806505010828 0.7049688792083846 0  0.3344262115128906 0.7022610006664348 0  0.3103585114047355 0.7004348528568598 0  0.2871878794500234 0.6985430823249696 0  0.3707860063334568 0.3158812950712658 0  0.2861867358631926 0.4368554335370748 0  0.370926468735671 0.6850172521934599 0  0.28625954332012 0.5636060670369215 0  0.7144374684117006 0.5882651076009923 0  0.6049901732692263 0.6894285495595485 0  0.6280856544521506 0.3146395350792426 0  0.7150236927166621 0.4359348610174748 0  0.713562892037268 0.5121032221616275 0  0.5576501474419665 0.3032038968644372 0  0.4425662888275095 0.3059447225086112 0  0.4410732777321997 0.6955196001204206 0  0.5350181774404531 0.6988654120223142 0  0.2861499708197114 0.4875885598843491 0  0.2839856704872578 0.3864071113373402 0  0.4883437995112738 0.304281749758767 0  0.2895482455722032 0.6120634814009146 0  0.7109972831221203 0.3841985779337021 0  0.4882494923854446 0.700378780226725 0  0.6530505702070191 0.6828935661247444 0  0.322348991236915 0.3223104430727438 0  0.6778545259587951 0.3230829621916356 0  0.3231431981526885 0.6804535691685917 0  0.7136988805687796 0.6401222684686146 0  0.2843155948834513 0.3381384540392302 0  0.2870229235197854 0.6608681942396849 0  0.7001439641265437 0.6792574989369138 0  0.7165237829295795 0.3370934321617528 0  0.3468808768301562 0.6823815906319873 0  0.3589863569794415 0.6621040523279275 0  0.3822104444704689 0.6639880549409162 0  0.3696475078722468 0.6404625926010433 0  0.3935153511079477 0.6412010868010343 0  0.3801445869625743 0.6149261550585291 0  0.4089514848376355 0.6142829964083861 0  0.3925609918845613 0.584404116700708 0  0.3524353101385515 0.6140947119606028 0  0.4279184003636878 0.5835412299555098 0  0.4067418019318969 0.5488899843750299 0  0.3666358003611093 0.5549596066715879 0  0.38326926612842 0.5147968243925336 0  0.3466029372928903 0.5170974106113215 0  0.3591356552463396 0.4813881779573389 0  0.3983957456938777 0.4761900307176384 0  0.3773779396982968 0.4427635820636488 0  0.4142376072643849 0.4380817851564756 0  0.3935928542076099 0.4071130808924187 0  0.427943548340719 0.3976432048788285 0  0.3589973093869079 0.4070561596315633 0  0.4025331434311277 0.3751044860626155 0  0.4372716293605045 0.6145891411099615 0  0.4642466552701692 0.589633341092928 0  0.4831428283323041 0.613183838083452 0  0.502173967009552 0.5905970013373558 0  0.5203642687492148 0.6135367694782354 0  0.5392136288788854 0.5916135927687761 0  0.5573762029232098 0.6159289750151286 0  0.5762422768257535 0.5940099562431918 0  0.594934931145682 0.6219160748049255 0  0.6125953184865961 0.5900634705760248 0  0.59653764437
[...]
<PointData  Scalars="state"> 
<DataArray  type="Float64"  Name="state"  format="ascii">0.0000000000000000e+00  0.0000000000000000e+00  0.0000000000000000e+00  0.0000000000000000e+00  0.0000000000000000e+00  0.0000000000000000e+00  0.0000000000000000e+00  0.0000000000000000e+00  -2.4018903765255735e-02  -2.4079870165715663e-02  -2.4262483074355502e-02  -2.4235734307402012e-02  1.2699483063699810e+00  0.0000000000000000e+00  0.0000000000000000e+00  0.0000000000000000e+00  0.0000000000000000e+00  0.0000000000000000e+00  0.0000000000000000e+00  0.0000000000000000e+00  0.0000000000000000e+00  0.0000000000000000e+00  0.0000000000000000e+00  0.0000000000000000e+00  0.0000000000000000e+00  0.0000000000000000e+00  0.0000000000000000e+00  0.0000000000000000e+00  0.0000000000000000e+00  0.0000000000000000e+00  0.0000000000000000e+00  0.0000000000000000e+00  0.0000000000000000e+00  0.0000000000000000e+00  0.0000000000000000e+00  0.0000000000000000e+00  0.0000000000000000e+00  0.0000000000000000e+00  0.0000000000000000e+00  0.0000000000000000e+00  0.0000000000000000e+00  0.0000000000000000e+00  0.0000000000000000e+00  0.0000000000000000e+00  0.0000000000000000e+00  0.0000000000000000e+00  0.0000000000000000e+00  0.0000000000000000e+00  0.0000000000000000e+00  0.0000000000000000e+00  0.0000000000000000e+00  0.0000000000000000e+00  0.0000000000000000e+00  0.0000000000000000e+00  0.0000000000000000e+00  0.0000000000000000e+00  0.0000000000000000e+00  0.0000000000000000e+00  0.0000000000000000e+00  0.0000000000000000e+00  0.0000000000000000e+00  0.0000000000000000e+00  0.0000000000000000e+00  0.0000000000000000e+00  0.0000000000000000e+00  0.0000000000000000e+00  0.0000000000000000e+00  0.0000000000000000e+00  0.0000000000000000e+00  0.0000000000000000e+00  0.0000000000000000e+00  0.0000000000000000e+00  0.0000000000000000e+00  0.0000000000000000e+00  0.0000000000000000e+00  0.0000000000000000e+00  0.0000000000000000e+00  0.0000000000000000e+00  0.0000000000000000e+00  0.0000000000000000e+00  0.0000000000000000e+00  0.0000000000000000e+00  0.0000000000000000e+00  0.0000000000000000e+00  0.0000000000000000e+00  0.0000000000000000e+00  0.0000000000000000e+00  0.0000000000000000e+00  0.0000000000000000e+00  0.0000000000000000e+00  0.0000000000000000e+00  0.0000000000000000e+00  0.0000000000000000e+00  0.0000000000000000e+00  0.0000000000000000e+00  0.0000000000000000e+00  0.0000000000000000e+00  0.0000000000000000e+00  0.0000000000000000e+00  0.0000000000000000e+00  0.0000000000000000e+00  0.0000000000000000e+00  0.0000000000000000e+00  0.0000000000000000e+00  0.0000000000000000e+00  0.0000000000000000e+00  0.0000000000000000e+00  0.0000000000000000e+00  0.0000000000000000e+00  0.0000000000000000e+00  0.0000000000000000e+00  0.0000000000000000e+00  0.0000000000000000e+00  0.0000000000000000e+00  0.0000000000000000e+00  0.0000000000000000e+00  0.0000000000000000e+00  0.0000000000000000e+00  0.0000000000000000e+00  0.0000000000000000e+00  0.0000000000000000e+00  0.0000000000000000e+00  0.0000000000000000e+00  0.0000000000000000e+00  0.0000000000000000e+00  0.0000000000000000e+00  0.0000000000000000e+00  0.0000000000000000e+00  0.0000000000000000e+00  0.0000000000000000e+00  0.0000000000000000e+00  0.0000000000000000e+00  0.0000000000000000e+00  0.0000000000000000e+00  0.0000000000000000e+00  0.0000000000000000e+00  0.0000000000000000e+00  0.0000000000000000e+00  0.0000000000000000e+00  0.0000000000000000e+00  0.0000000000000000e+00  0.0000000000000000e+00  0.0000000000000000e+00  0.0000000000000000e+00  0.0000000000000000e+00  0.0000000000000000e+00  0.0000000000000000e+00  0.0000000000000000e+00  0.0000000000000000e+00  0.0000000000000000e+00  0.0000000000000000e+00  0.0000000000000000e+00  0.0000000000000000e+00  0.0000000000000000e+00  0.0000000000000000e+00  0.0000000000000000e+00  0.0000000000000000e+00  0.0000000000000000e+00  0.0000000000000000e+00  0.0000000000000000e+00  0.0000000000000000e+00  0.0000000000000000e+00  0.0000000000000000e+00  0.0000000000000000e+00  0.0000000000000000e+00  0.0000000000000000e+00  0.0000000000000000e+00  0.0000000000000000e+00  0.0000000000000000e+00  0.0000000000000000e+00  0.0000000000000000e+00  0.0000000000000000e+00  0.0000000000000000e+00  0.0000000000000000e+00  0.0000000000000000e+00  0.0000000000000000e+00  0.0000000000000000e+00  0.0000000000000000e+00  0.0000000000000000e+00  0.0000000000000000e+00  0.0000000000000000e+00  -2.0918406260248268e-02  -1.8085873731694811e-02  -1.3514102165391444e-02  -8.9760390169351216e-03  -5.4758612621135152e-03  -3.0778620001640057e-03  -1.8108304570222597e-03  -2.0220275429696263e-03  -1.0289435271683524e-03  -2.5420381868651097e-03  -6.0111920849872718e-03  -9.6469908379547571e-03  -1.3412273668690850e-02  -1.7659224006903902e-02  -2.0776517571284750e-02  -2.1540342032976102e-02  -1.8177195276195494e-02  -1.3757464118021034e-02  -8.9591447980811693e-03  -6.3585076393349047e-03  -3.8428622633789830e-03  -3.6032256851366794e-03  -4.4730234260465579e-03  -4.2247687676788097e-03  -4.7482038491830358e-03  -4.7711089444028142e-03  -3.9485032018844405e-03  -4.6115090311344142e-03  -3.6305634163594684e-03  -7.0293056865063375e-03  -1.0111598713619841e-02  -1.4157201095470079e-02  -1.8146097088132335e-02  -2.1617670074866813e-02  -2.1395893452227133e-02  -1.8129840550428135e-02  -1.3701002581411395e-02  -9.0261448717372673e-03  -5.9434633910851109e-03  -3.4442211074800300e-03  -2.0153904446164892e-03  -1.0517599895410149e-03  -7.5037186011080897e-04  -2.4805568045657362e-03  -4.9841639331471002e-03  -8.2107644340880057e-03  -1.3600637448815475e-02  -1.7952896072283186e-02  -2.1337139350667129e-02  -2.1511958086027603e-02  -1.8339076263440914e-02  -1.4566935300139023e-02  -1.0329610313350437e-02  -7.0285898020577050e-03  -3.7869149184411562e-03  -4.6022427653753520e-03  -3.6395766231153356e-03  -4.2988475168147799e-03  -4.4652112326062036e-03  -4.3350315593460292e-03  -4.2671178027080753e-03  -3.2483075460204287e-03  -4.2563979599782517e-03  -6.5852704703283195e-03  -9.0421079517354758e-03  -1.3793781503676312e-02  -1.8208332393828120e-02  -2.1470951978934019e-02  5.7548713518784066e-02  5.9384568030694418e-02  5.7928222417415798e-02  5.9130060441979257e-02  5.3253962765107105e-02  6.1503901669337890e-02  5.7259132768286800e-02  5.6797627271640963e-02  6.1564758173739048e-02  6.3636643221712461e-02  6.9308429823241091e-02  6.6719812914769708e-02  6.4804481423018631e-02  6.2699505623021276e-02  4.1897988809694829e-02  7.3553013068210799e-02  4.8444105645845767e-02  4.5304985494862011e-02  6.5729874328194271e-02  4.4278055675093700e-02  3.1514093644525495e-02  3.2600361921963215e-02  3.0444657937652123e-02  2.9999087439957061e-02  1.6552073282464840e-02  1.9123251792547220e-02  1.6846417418200851e-02  1.6719921170541191e-02  4.4609878531610643e-02  8.4126584321079639e-02  1.0364477560670599e-01  1.9678226425475401e-01  2.3280682418629983e-01  5.1259192460707959e-01  6.4620909564025275e-01  7.3565882328397192e-01  3.1761632757059705e-01  8.8539142280144634e-01  9.2668830156750825e-01  6.7941429866321201e-01  8.8507665713746519e-01  4.1105496858835683e-01  6.3630057120890104e-01  9.3660182356121036e-01  7.6551991130053931e-01  9.0954760275421509e-01  7.1207060639730846e-01  8.0709781979605788e-01  5.0531102129713257e-01  4.6350520376633092e-01  7.5721666737322235e-01  9.4751136140867831e-01  8.4616675574293521e-01  9.6537975562228606e-01  8.3309156633331782e-01  9.2875034626775455e-01  7.5839103812210151e-01  8.2356519239566917e-01  5.2646408594049909e-01  7.1564902885545600e-01  8.7688561788187003e-01  6.8187523132345407e-01  8.8521898166738122e-01  4.1706760758474398e-01  2.2753980403400181e-01  2.3496855848524661e-01  2.7134574693999036e-01  2.2114523818111276e-01  1.4331489255248345e-01  4.6920150926947479e-01  8.5788177139550192e-01  1.1897558180867483e-01  1.7162206214740816e-01  3.1497895448526148e-01  2.4660297769821166e-01  4.3207526405295393e-01  9.0070085581023140e-01  3.7759891720003547e-01  8.3195058422455292e-01  1.0183794688362711e+00  8.8329351268006884e-01  6.7315573202565449e-01  7.1105929045771610e-01  9.3848356629189300e-01  7.1428542401537476e-01  5.1835949711384444e-01  4.3987813533835435e-01  5.3653123874378716e-01  2.3559787503890028e-01  1.5833058591130372e-01  8.9102617985828317e-02  9.6731709668215551e-02  1.0648407242208897e+00  1.3397882608888551e-01  1.8350145121483932e-01  1.0950162483505092e-01  1.4340771273594172e-01  8.2955976937334336e-02  7.2977923809973755e-02  1.2717961152277543e-01  3.1684766919415058e-01  1.1684987569413678e-01  7.9358045236305810e-02  1.4860120641441804e-01  2.9150259302993675e-01  1.7551572482989619e-01  1.8791375245939543e-01  2.1486373971370334e-01  1.2878169365690853e-01  1.0431366991213623e-01  7.9711783671216035e-02  1.3144228398485677e-01  9.3663650742144222e-02  1.4105562432033564e-01  7.3272939552300437e-02  2.8642570801024841e-01  1.1433954398475963e+00  8.0945379912704160e-02  1.1325438196484996e+00  4.3159976113106774e-01  1.5076561519483167e-01  3.4092334604041558e-01  1.5888351965047107e-01  9.0971301277680952e-02  8.1390580371435414e-02  1.3643070363065518e-01  4.2220260839675466e-01  1.7594040759038940e-01  1.0592985938584526e-01  9.4877816602824461e-01  5.0057322408971407e-02  4.0563399289795500e-02  3.9908298562508138e-01  1.5100119556806835e-01  1.8265969938339546e-01  2.5627262440883991e-01  1.6878324450996998e-01  9.8068842342351026e-02  1.6432379338201217e-01  9.5898319671430837e-02  7.7972786304376845e-02  5.3557994529898026e-02  2.7556675686958191e-02  4.5457674421273540e-02  9.0513370626095033e-02  6.8438486820280628e-02  6.4418139686417950e-02  5.5645371859571927e-02  2.5085274116880760e-02  2.9366260486038999e-02  6.6385237157647714e-02  1.2532312275415267e-01  2.9004135758540095e-01  4.6501619055038683e-02  6.3163806784473697e-02  7.1322415496752861e-02  4.5529993067291580e-02  7.5074442800359950e-02  6.9045092162440438e-02  6.0979109586946793e-02  3.1218345808875451e-02  4.8747970262093258e-02  6.3237379442022540e-02  5.4096827822378755e-02  7.8399517522529438e-02  6.4959240141538810e-02  1.0757135162293212e-01  6.4944725824418237e-02  5.5566459289348953e-02  3.0122965857828834e-02  2.5903259957186165e-02  7.8030426428387561e-02  1.5799160217531305e-01  5.1399932706328401e-02  6.2692522297130682e-02  8.5436397954467488e-02  1.6667140546048828e-02  1.6993467163214888e-02  1.6317453750274252e-02  1.7151271884382702e-02  5.9680620664397735e-02  1.0225913231563977e+00  1.1872510198136721e+00  9.6751663378907421e-02  5.5912546379433152e-02  5.1517953474545922e-02  4.6789132594455496e-02  2.9080998475141794e-02  6.2122939749466241e-02  7.8874630925258538e-02  1.3686946480408269e-01  2.0176548390395044e-01  6.4433036529879445e-02  1.7156635537153869e-01  1.0783234100999386e+00  1.1065670496543683e+00  8.0290452160819892e-01  1.2755350173863195e-01  7.9697874152451997e-02  1.2636366065897472e-01  1.1323413047666854e-01  1.3135078945072479e-01  6.1718903341651053e-02  5.9519194632677269e-02  1.0707978592292084e+00  4.1651978490260096e-02  1.2137294737798836e-01  1.0636957997778324e-01  3.8971914241047234e-01  6.9360699379219681e-02  3.1265323510327553e-01  8.0455111236002053e-01  5.7176697663673948e-02  1.2158549800721761e+00  5.9389261435425678e-01  2.0171824422305199e-02  2.7195026471139438e-01  1.2049188894412982e-01  1.1191141881901175e-01  1.0385962358259895e+00  6.0285035735386579e-02  9.4674261289953113e-02  1.1846096442368878e-01  1.2299811200325055e+00  8.5526358566786032e-02  1.7341465673313444e-01  1.1897639775488114e+00  2.6666566908842354e-01  1.2402283350052314e-01  1.2259477141067596e+00  3.3675358841695313e-01  7.6498618705594740e-02  8.5192225885537584e-02  1.9325663390312092e-01  4.7825925419417387e-01  1.1223563673646932e-01  5.3326714459027730e-02  2.8472500176017335e-01  1.7630908470296372e-02  1.7733148056893452e-02  1.7191675338074964e-02  1.7785154290323006e-02  9.0287775155687422e-02  4.6361029054548614e-02  7.3732019828070150e-02  5.8009457489793026e-02  1.1216624809730646e-01  5.5876247115020528e-01  5.5019598356967625e-02  7.3948460261009416e-02  2.8713307963054174e-01  6.9445325863826091e-01  4.4664706304808749e-01  7.6558123024727431e-01  6.9592957043213860e-02  7.0227336670304985e-01  1.3533273341835456e-01  5.8483327176702449e-01  1.2222496075726454e+00  1.4067850885927111e-01  4.0776899721072446e-01  2.1984686693975902e-01  1.1317062472557303e-01  2.9672428438903042e-01  6.7719712317689273e-01  1.1098118103862145e+00  2.9300406838171384e-02  -1.5779907652836895e-02  -1.5759840335152039e-02  -1.8120566850636149e-02  -2.3174782528352641e-02  -1.8170906904765402e-02  -2.3535330815146097e-02  -1.5684957383227963e-02  -1.7598114870418641e-02  -1.5992767148657085e-02  -1.8034427441989177e-02  -2.3362578900797525e-02  -2.3333173979987697e-02  -1.3759703306604438e-02  -1.3146800083328219e-02  -1.4324649219052235e-02  -1.3438057000005084e-02  -1.5096582670496926e-02  -2.2160743517542124e-02  -2.2359746271377604e-02  -1.5062875403716569e-02  -2.5604594634568708e-02  -2.6560190256320136e-02  -1.6107453294760838e-02  -1.6151655851933740e-02  -2.4238410794953522e-02  -2.6273668813422024e-02  -2.6940020367351301e-02  -2.7153243629273044e-02  -2.7234563940050791e-02  -2.7421306468740258e-02  -1.5095243745084910e-02  -1.4718978955077601e-02  -1.5063061883582371e-02  -1.4700710888757643e-02  -1.4360022504206614e-02  -1.4305211280837844e-02  -1.4412726634592607e-02  -2.7101811785577679e-02  -2.7338151605927310e-02  -2.6510063426383724e-02  -2.5887557109568752e-02  -1.4985411841588839e-02  -1.4741420637542042e-02  -1.4666334146969790e-02  -1.4462327618527261e-02  -1.4672363649532290e-02  -1.4462904095173817e-02  -1.5405902665114867e-02  -1.4463357042862508e-02  -2.5613819197924260e-02  -2.5095515315259120e-02  -1.4885164115818911e-02  -1.4502075740065502e-02  -1.4902397950844483e-02  -2.6040768326758227e-02  -2.6623786533900778e-02  -2.6901727864676764e-02  -2.7211436919925957e-02  -2.7359605731525162e-02  -2.7264232599709774e-02  -2.7086996728380643e-02  -2.7171672799449598e-02  -2.7239133534081368e-02  -2.6572065989514167e-02  -2.5941325509271040e-02  -2.6574285105106208e-02  -2.6820905361548013e-02  -2.7125633988901103e-02  -2.6726154983470824e-02  -2.7272871981901599e-02  -2.7175045377389035e-02  -2.7095461138573140e-02  -2.7161374447147387e-02  -2.6519342983328607e-02  -1.9614445311050225e-02  -2.5609633745986200e-02  -2.6569600830462524e-02  -2.6284155091055916e-02  -2.6954709295013819e-02  -2.7154766835233640e-02  -2.7245373377631520e-02  -2.7439191555759669e-02  -2.7131547600099781e-02  -2.7258039860395909e-02  -1.3705907989708353e-02  -1.4491113329342655e-02  -1.7910996726016797e-02  -1.8095990186252738e-02  -2.6795681146336094e-02  -2.6497013381442995e-02  -2.6565039909507367e-02  -2.6410774738974744e-02  -2.6608666727918378e-02  -2.6810950280051989e-02  -1.4269418410288670e-02  -2.6275910452193092e-02  -2.7170331877069822e-02  -2.6360789713582244e-02  -2.6257000595590316e-02  -2.7001485121723498e-02  -2.6685229918941896e-02  -1.9436567506653575e-02  -2.4928345211861831e-02  -2.5084296842765280e-02  -1.2338362479699234e-02  -1.2054315835305257e-02  -1.2270628724546838e-02  -2.4722945615941717e-02  -2.4850742939354936e-02  -2.3927698786176507e-02  -2.3566207064298690e-02  -2.5641109100069018e-02  -2.6443020629147995e-02  -2.5562839588052666e-02  -2.6317282031188480e-02  -2.4941573131557281e-02  -2.6150067282782959e-02  -2.4657870622093257e-02  -2.5560000069902347e-02  -2.4190860686822468e-02  -2.4647596911569637e-02  -2.5091617119385110e-02  -2.6230810964597284e-02  -2.4724012585386930e-02  -2.5507630687780173e-02  -2.4217167637632837e-02  -2.4731224367165700e-02  -2.3685962260924783e-02  -2.4055767856544570e-02  -2.3261948831501091e-02  -2.3608282088607588e-02  -2.2973691075454206e-02  -2.3427960029754443e-02  -2.2869456065458909e-02  -2.3525642908838750e-02  -2.3608810520817012e-02  -2.3958677996019941e-02  -2.3163522037557418e-02  -2.3504704935953843e-02  -2.2866167279163283e-02  -2.3318118771654794e-02  -2.2748879212209326e-02  -2.3417551564419072e-02  -2.4596170624407471e-02  -2.4486004236485136e-02  -2.7082093246070707e-02  -2.7031963869610685e-02  -2.4550692491020279e-02  -2.4278020734885809e-02  -2.3035385903488432e-02  -2.3896230377980537e-02  -2.3285421465278486e-02  -2.4449326758384363e-02  -2.3588410132357140e-02  -2.2915351266620095e-02  -2.3787028498738066e-02  -2.3159847703972072e-02  -2.4344954372730748e-02  -2.3486673301079914e-02  -2.6452952147883159e-02  -2.5031162986553342e-02  -2.4612828491072568e-02  -2.3594855151603814e-02  -2.4350763313232531e-02  -2.3679916758017006e-02  -2.4417092482185841e-02  -2.2739859230861165e-02  -2.2762628345686636e-02  -2.2867223130419053e-02  -2.2918264501757605e-02  -2.3063208946034326e-02  -2.1391096920432024e-02  -2.3120219163836931e-02  -2.4373011593185993e-02  -2.3170938039241650e-02  -2.2106658014965488e-02  -2.1269016957638193e-02  -2.4416485668241568e-02  -2.2846336596835198e-02  -2.4417857224615466e-02  -2.1884443234018662e-02  -2.4512517230150032e-02  -2.1534617191716073e-02  -2.1479078350259962e-02  -2.1181716153196112e-02  -2.3204392842144581e-02  -2.1346766402566861e-02  -2.3367322012788981e-02  -1.8505796253817666e-02  -2.6662273547623197e-02  -9.6123824872794486e-03  -2.4915073936844914e-02  -2.6751824696560247e-02  -2.2023303041246004e-02  -2.0900505436387953e-02  -2.2383547584221328e-02  -2.2102547283402670e-02  -2.6175894071385302e-02  -2.6072751952148213e-02  -2.5272171523820452e-02  -2.5904961611407297e-02  -2.5095160456559389e-02  -2.5144269464244241e-02  -2.4381798089649291e-02  -2.3732198373017002e-02  -2.3188642105880439e-02  -2.4604886547025834e-02  -2.3383270324024211e-02  -2.2578366425492651e-02  -2.2241492825659417e-02  -2.2003067610485112e-02  -2.1495174722136204e-02  -2.1698095943209622e-02  -2.1056170090837295e-02  -2.2777445206146548e-02  -2.2703251371119587e-02  -2.1431052992053137e-02  -2.3386298995556283e-02  -2.2734960688792213e-02  -2.1842094830177461e-02  -1.8905783813882807e-02  -2.1633265904911367e-02  -2.1693493328527814e-02  -2.2038324710355470e-02  -2.0861826355709122e-02  -9.1429004141412688e-03  -9.8988788211667126e-03  -9.4256345964837656e-03  -2.6155074941890250e-02  -2.5244063509814979e-02  -2.5931456763760817e-02  -2.3793145388639515e-02  -2.4989176838534358e-02  -1.8925674524784261e-02  -1.9735021791016494e-02  -1.9832752243740166e-02  -2.2565884547802530e-02  -2.3770698642361567e-02  -2.4757623595665613e-02  -2.3704787061047825e-02  -2.2460675207657578e-02  -2.2634176160680763e-02  -2.2666567267716722e-02  -2.1841258782576790e-02  -2.1921804673534214e-02  -2.1611902616792293e-02  -2.1046056580144013e-02  -2.1524803588610451e-02  -2.0793129113154261e-02  -2.1206217592515727e-02  -2.1479171611225447e-02  -2.1869155886709304e-02  -2.1473589175618611e-02  -2.2542357440297506e-02  -2.2229437448013607e-02  -2.3288522507585275e-02  -2.2906064942057852e-02  -2.4257870963835262e-02  -2.3028459732851874e-02  -2.4898543789244221e-02  -2.2574023474811016e-02  -2.4452164167362900e-02  -2.2935765815481839e-02  -2.4055474354280858e-02  -2.2274906747910505e-02  -2.6059386252427291e-02  -2.5657229274915584e-02  -2.1020004187186820e-02  -1.9650151313400310e-02  -2.2994292279549796e-02  -2.2340421387868226e-02  -2.6236717936829582e-02  -2.0925078026138199e-02  -2.5335180231000936e-02  -2.0584797258988333e-02  -2.0822843849684657e-02  -2.2097924889920972e-02  -2.5283896125238743e-02  -2.0138605920614928e-02  -2.3501581674628343e-02  -2.0256760235413410e-02  -2.1312106294440379e-02  -2.1506701470619810e-02  -2.0896391993543803e-02  -2.2946078826700474e-02  -2.1448107740747607e-02  -2.1483288056850843e-02  -2.0604943806608371e-02  -2.2660852868142987e-02  -2.3522352833332622e-02  -2.1142119428733380e-02  -2.1800990612290447e-02  -1.6728738870373072e-02  -1.9797009879895740e-02  -2.1227494129341211e-02  -2.4212655063537990e-02  -2.1921994848128391e-02  -2.1546459151427787e-02  -1.7244