<?xml version="1.0"?>
<VTKFile type="UnstructuredGrid"  version="0.1"  >
<UnstructuredGrid>
<Piece  NumberOfPoints="1297" NumberOfCells="2496">
<Points>
<DataArray  type="Float64"  NumberOfComponents="3"  format="ascii">0 0 0  0 1 0  1 1 0  1 0 0  1.1 -0.1 0  -0.1 -0.1 0  1.1 1.1 0  -0.1 1.1 0  0.2777601734117278 0.688242422696179 0  0.2778782633206189 0.3122254934952811 0  0.7224996044119426 0.3118315417052155 0  0.722357298282754 0.6883389787638419 0  0.50011153605591 0.5001164027464956 0  0 0.9499999999997918 0  0 0.8999999999995836 0  0 0.8499999999996529 0  0 0.7999999999999998 0  0 0.7500000000003466 0  0 0.7000000000006934 0  0 0.6500000000010401 0  0 0.6000000000013869 0  0 0.5500000000017335 0  0 0.5000000000020587 0  0 0.4500000000018723 0  0 0.4000000000016644 0  0 0.3500000000014564 0  0 0.3000000000012483 0  0 0.2500000000010403 0  0 0.2000000000008322 0  0 0.1500000000006241 0  0 0.100000000000416 0  0 0.05000000000020799 0  0.04999999999989965 0 0  0.09999999999981467 0 0  0.1499999999997036 0 0  0.1999999999995579 0 0  0.2499999999994121 0 0  0.2999999999992664 0 0  0.3499999999991206 0 0  0.3999999999989749 0 0  0.4499999999988292 0 0  0.4999999999986943 0 0  0.5499999999988151 0 0  0.5999999999989468 0 0  0.6499999999990784 0 0  0.69999999999921 0 0  0.7499999999993417 0 0  0.7999999999994734 0 0  0.8499999999996051 0 0  0.8999999999997368 0 0  0.9499999999998684 0 0  1 0.04999999999989965 0  1 0.09999999999981467 0  1 0.1499999999997036 0  1 0.1999999999995579 0  1 0.2499999999994121 0  1 0.2999999999992664 0  1 0.3499999999991206 0  1 0.3999999999989749 0  1 0.4499999999988292 0  1 0.4999999999986943 0  1 0.5499999999988151 0  1 0.5999999999989468 0  1 0.6499999999990784 0  1 0.69999999999921 0  1 0.7499999999993417 0  1 0.7999999999994734 0  1 0.8499999999996051 0  1 0.8999999999997368 0  1 0.9499999999998684 0  0.9499999999997918 1 0  0.8999999999995836 1 0  0.8499999999996529 1 0  0.7999999999999998 1 0  0.7500000000003466 1 0  0.7000000000006934 1 0  0.6500000000010401 1 0  0.6000000000013869 1 0  0.5500000000017335 1 0  0.5000000000020587 1 0  0.4500000000018723 1 0  0.4000000000016644 1 0  0.3500000000014564 1 0  0.3000000000012483 1 0  0.2500000000010403 1 0  0.2000000000008322 1 0  0.1500000000006241 1 0  0.100000000000416 1 0  0.05000000000020799 1 0  -0.1 1.05000000000004 0  -0.1 1.000000000000079 0  -0.1 0.9500000000001624 0  -0.1 0.9000000000003032 0  -0.1 0.850000000000444 0  -0.1 0.8000000000005848 0  -0.1 0.7500000000007256 0  -0.1 0.7000000000008665 0  -0.1 0.6500000000010508 0  -0.1 0.6000000000012352 0  -0.1 0.5500000000014196 0  -0.1 0.500000000001539 0  -0.1 0.4500000000014195 0  -0.1 0.4000000000013 0  -0.1 0.3500000000011588 0  -0.1 0.3000000000010178 0  -0.1 0.2500000000008986 0  -0.1 0.2000000000007579 0  -0.1 0.1500000000006174 0  -0.1 0.1000000000005272 0  -0.1 0.05000000000040083 0  -0.1 2.671196597248127e-13 0  -0.1 -0.0499999999998666 0  -0.0500000000000906 -0.1 0  -1.730560139634463e-13 -0.1 0  0.04999999999975802 -0.1 0  0.09999999999961506 -0.1 0  0.1499999999994613 -0.1 0  0.199999999999302 -0.1 0  0.2499999999991446 -0.1 0  0.2999999999990088 -0.1 0  0.3499999999988296 -0.1 0  0.3999999999986936 -0.1 0  0.4499999999985143 -0.1 0  0.4999999999984002 -0.1 0  0.5499999999985247 -0.1 0  0.5999999999986493 -0.1 0  0.6499999999987955 -0.1 0  0.6999999999989417 -0.1 0  0.7499999999990659 -0.1 0  0.7999999999992116 -0.1 0  0.8499999999993573 -0.1 0  0.8999999999994526 -0.1 0  0.949999999999584 -0.1 0  0.9999999999997226 -0.1 0  1.049999999999861 -0.1 0  1.1 -0.0500000000000906 0  1.1 -1.730560139634463e-13 0  1.1 0.04999999999975802 0  1.1 0.09999999999961506 0  1.1 0.1499999999994613 0  1.1 0.199999999999302 0  1.1 0.2499999999991446 0  1.1 0.2999999999990088 0  1.1 0.3499999999988296 0  1.1 0.3999999999986936 0  1.1 0.4499999999985143 0  1.1 0.4999999999984002 0  1.1 0.5499999999985247 0  1.1 0.5999999999986493 0  1.1 0.6499999999987955 0  1.1 0.6999999999989417 0  1.1 0.7499999999990659 0  1.1 0.7999999999992116 0  1.1 0.8499999999993573 0  1.1 0.8999999999994526 0  1.1 0.949999999999584 0  1.1 0.9999999999997226 0  1.1 1.049999999999861 0  1.05000000000004 1.1 0  1.000000000000079 1.1 0  0.9500000000001624 1.1 0  0.9000000000003032 1.1 0  0.850000000000444 1.1 0  0.8000000000005848 1.1 0  0.7500000000007256 1.1 0  0.7000000000008665 1.1 0  0.6500000000010508 1.1 0  0.6000000000012352 1.1 0  0.5500000000014196 1.1 0  0.500000000001539 1.1 0  0.4500000000014195 1.1 0  0.4000000000013 1.1 0  0.3500000000011588 1.1 0  0.3000000000010178 1.1 0  0.2500000000008986 1.1 0  0.2000000000007579 1.1 0  0.1500000000006174 1.1 0  0.1000000000005272 1.1 0  0.05000000000040083 1.1 0  2.671196597248127e-13 1.1 0  -0.0499999999998666 1.1 0  0.272839756070935 0.6704773921842897 0  0.2706092479381327 0.6484426670266141 0  0.2694345565355779 0.6246229548192884 0  0.268088170694853 0.5995685854424624 0  0.2662562571049419 0.5741461132211195 0  0.2641657147736436 0.5491030901734608 0  0.2625970776925107 0.5245513432905352 0  0.2621499688907026 0.500321302877773 0  0.2628621295271895 0.4759888675188818 0  0.2645520959237141 0.451327538595727 0  0.2665779944900801 0.4261652625487277 0  0.2682777180880209 0.4007180342504973 0  0.269517527988948 0.3757736409863581 0  0.2707070259246992 0.3520194767447197 0  0.2729626862803547 0.3299904868498776 0  0.2949390263840081 0.305454683803207 0  0.3160787564272972 0.3004754997386641 0  0.3391767400736546 0.2956886919715619 0  0.3631736308850864 0.2896789752301755 0  0.3868740622449829 0.2821344810920531 0  0.4095844205629595 0.2740700037076051 0  0.4318492431530952 0.2668106433018301 0  0.4540694215906368 0.261062521439257 0  0.4767583583627285 0.2569262595001486 0  0.499903912219358 0.2553092028814171 0  0.5230918261261933 0.2564623810900047 0  0.5459644682817369 0.2603031099238002 0  0.5680013968151761 0.2665713848514967 0  0.5903799534598867 0.273543508423591 0  0.6130456754356072 0.2815285251568054 0  0.6367669966530074 0.2889254116753048 0  0.6608966253307827 0.2949900099393193 0  0.6840456065008882 0.2999515002992034 0  0.7052745456241893 0.3050616168813408 0  0.7273906210330079 0.3298362298601843 0  0.7297380682135278 0.3518523146372985 0  0.7310093227049079 0.3757638729221742 0  0.7323464836786847 0.4008704016388236 0  0.7342507718908966 0.4263404466021264 0  0.7363759976883351 0.4514387431314344 0  0.7379928371084256 0.4759852968403285 0  0.7385777167717863 0.5002772583240886 0  0.7379330225381192 0.5246142253468905 0  0.7360997895834235 0.5491442501853701 0  0.7337897673806547 0.5741536731456695 0  0.7318433637783254 0.5995463989190838 0  0.7307420443360284 0.6245409193666381 0  0.7295732214960332 0.6483761302627982 0  0.7272468175900331 0.6703508859531339 0  0.7051705532967073 0.6951203276358106 0  0.6839790365228545 0.7002062473197538 0  0.6607977784407375 0.705147986385408 0  0.6366792711903132 0.7111753626710948 0  0.6130009061013362 0.7185661407880504 0  0.590406288224514 0.7266139863024209 0  0.5681025206275734 0.73375607730904 0  0.5460639895434096 0.740174313538042 0  0.5232341784875874 0.7442787525022295 0  0.5000098373574349 0.7456557011019275 0  0.4768260836892784 0.7442297064841964 0  0.4540730033555691 0.7402250391553414 0  0.4317141769688937 0.7343395328115715 0  0.4096520632188748 0.7266415290346085 0  0.3870742096331875 0.7184821338808283 0  0.3632287181440768 0.7109694353097514 0  0.3391697122875812 0.7049159254212327 0  0.3160684795912433 0.7000533379145327 0  0.2948688666917399 0.6950258534825907 0  0.3743131377333784 0.3098906022884277 0  0.2851038226286558 0.4380279274990395 0  0.3743998134707259 0.6906435814673507 0  0.2848637115751027 0.5623774525345946 0  0.7149505421428889 0.5869363601261993 0  0.6025042074599115 0.6973966328053308 0  0.6246670894287574 0.3087571397822324 0  0.7169417699050642 0.4373868443123148 0  0.7186552422406745 0.5119890465969673 0  0.5566624446088999 0.2913575263123395 0  0.4434556818257233 0.2941634083738645 0  0.4421902628620615 0.7067837837213992 0  0.5347176235243832 0.7111136578556893 0  0.2825956486648122 0.4878889235169501 0  0.2867547769149651 0.3875986930727979 0  0.4884076865908072 0.2917626395163923 0  0.2918508157476223 0.6108865039245687 0  0.7086380950077867 0.3854784426651426 0  0.4884945738269272 0.7131024342888722 0  0.6491340170263458 0.6859927820732743 0  0.3274281018581382 0.3213986617998149 0  0.673012781265295 0.3223775735734955 0  0.3280886131290434 0.6813026897370836 0  0.7098329010631864 0.6386470512871849 0  0.2906837945293037 0.3400770333870805 0  0.2929840892855983 0.6589742035070271 0  0.6943273723553179 0.6777237966097984 0  0.7103904960151896 0.3392789926816904 0  0.3510340472649455 0.6855843133757719 0  0.3623497969091319 0.6652944398497256 0  0.3849778163004316 0.6687140601312351 0  0.3721798462456251 0.6431125330424082 0  0.3955579471467704 0.6446104810562765 0  0.3818726688023715 0.6168174924015978 0  0.4103720522523089 0.6164900283100866 0  0.3934766461128342 0.5858020038329154 0  0.3544042250595106 0.6152457880425849 0  0.4285675430941907 0.5853963696974127 0  0.4068463736963299 0.5498385568429764 0  0.3670330302819891 0.5555339054844202 0  0.383147855795281 0.5149548985179081 0  0.3462272284117985 0.5171444371582117 0  0.3590521331779054 0.4811295328087185 0  0.3982459363097535 0.4756518004887157 0  0.3778528886993769 0.4418750545245012 0  0.4145678774981401 0.4366244215151872 0  0.3947588254743464 0.4053830106517126 0  0.4289695602517765 0.3953721279840195 0  0.3603608244946124 0.4059599480397996 0  0.4041917088530412 0.3723641235097842 0  0.4383869533785038 0.6168987382606798 0  0.4647123792469235 0.5918759703646262 0  0.4835756092592881 0.6156251640258982 0  0.5022937847022966 0.5929344134636063 0  0.5201598444563397 0.6160078668007462 0  0.5389801130681808 0.5938286812782556 0  0.5566085607116065 0.6182609091986839 0  0.5756567971162446 0.595912669006237 0  0.5936309409809644 0.6242069830851542 0  0.6118140803845059 0.5913793209059441 0  0.596604
[...]
<PointData  Scalars="state"> 
<DataArray  type="Float64"  Name="state"  format="ascii">0.0000000000000000e+00  0.0000000000000000e+00  0.0000000000000000e+00  0.0000000000000000e+00  0.0000000000000000e+00  0.0000000000000000e+00  0.0000000000000000e+00  0.0000000000000000e+00  -2.1431670422897960e-02  -2.1482728748097018e-02  -2.1537857777166651e-02  -2.1518996302196985e-02  1.3722890051456351e+00  0.0000000000000000e+00  0.0000000000000000e+00  0.0000000000000000e+00  0.0000000000000000e+00  0.0000000000000000e+00  0.0000000000000000e+00  0.0000000000000000e+00  0.0000000000000000e+00  0.0000000000000000e+00  0.0000000000000000e+00  0.0000000000000000e+00  0.0000000000000000e+00  0.0000000000000000e+00  0.0000000000000000e+00  0.0000000000000000e+00  0.0000000000000000e+00  0.0000000000000000e+00  0.0000000000000000e+00  0.0000000000000000e+00  0.0000000000000000e+00  0.0000000000000000e+00  0.0000000000000000e+00  0.0000000000000000e+00  0.0000000000000000e+00  0.0000000000000000e+00  0.0000000000000000e+00  0.0000000000000000e+00  0.0000000000000000e+00  0.0000000000000000e+00  0.0000000000000000e+00  0.0000000000000000e+00  0.0000000000000000e+00  0.0000000000000000e+00  0.0000000000000000e+00  0.0000000000000000e+00  0.0000000000000000e+00  0.0000000000000000e+00  0.0000000000000000e+00  0.0000000000000000e+00  0.0000000000000000e+00  0.0000000000000000e+00  0.0000000000000000e+00  0.0000000000000000e+00  0.0000000000000000e+00  0.0000000000000000e+00  0.0000000000000000e+00  0.0000000000000000e+00  0.0000000000000000e+00  0.0000000000000000e+00  0.0000000000000000e+00  0.0000000000000000e+00  0.0000000000000000e+00  0.0000000000000000e+00  0.0000000000000000e+00  0.0000000000000000e+00  0.0000000000000000e+00  0.0000000000000000e+00  0.0000000000000000e+00  0.0000000000000000e+00  0.0000000000000000e+00  0.0000000000000000e+00  0.0000000000000000e+00  0.0000000000000000e+00  0.0000000000000000e+00  0.0000000000000000e+00  0.0000000000000000e+00  0.0000000000000000e+00  0.0000000000000000e+00  0.0000000000000000e+00  0.0000000000000000e+00  0.0000000000000000e+00  0.0000000000000000e+00  0.0000000000000000e+00  0.0000000000000000e+00  0.0000000000000000e+00  0.0000000000000000e+00  0.0000000000000000e+00  0.0000000000000000e+00  0.0000000000000000e+00  0.0000000000000000e+00  0.0000000000000000e+00  0.0000000000000000e+00  0.0000000000000000e+00  0.0000000000000000e+00  0.0000000000000000e+00  0.0000000000000000e+00  0.0000000000000000e+00  0.0000000000000000e+00  0.0000000000000000e+00  0.0000000000000000e+00  0.0000000000000000e+00  0.0000000000000000e+00  0.0000000000000000e+00  0.0000000000000000e+00  0.0000000000000000e+00  0.0000000000000000e+00  0.0000000000000000e+00  0.0000000000000000e+00  0.0000000000000000e+00  0.0000000000000000e+00  0.0000000000000000e+00  0.0000000000000000e+00  0.0000000000000000e+00  0.0000000000000000e+00  0.0000000000000000e+00  0.0000000000000000e+00  0.0000000000000000e+00  0.0000000000000000e+00  0.0000000000000000e+00  0.0000000000000000e+00  0.0000000000000000e+00  0.0000000000000000e+00  0.0000000000000000e+00  0.0000000000000000e+00  0.0000000000000000e+00  0.0000000000000000e+00  0.0000000000000000e+00  0.0000000000000000e+00  0.0000000000000000e+00  0.0000000000000000e+00  0.0000000000000000e+00  0.0000000000000000e+00  0.0000000000000000e+00  0.0000000000000000e+00  0.0000000000000000e+00  0.0000000000000000e+00  0.0000000000000000e+00  0.0000000000000000e+00  0.0000000000000000e+00  0.0000000000000000e+00  0.0000000000000000e+00  0.0000000000000000e+00  0.0000000000000000e+00  0.0000000000000000e+00  0.0000000000000000e+00  0.0000000000000000e+00  0.0000000000000000e+00  0.0000000000000000e+00  0.0000000000000000e+00  0.0000000000000000e+00  0.0000000000000000e+00  0.0000000000000000e+00  0.0000000000000000e+00  0.0000000000000000e+00  0.0000000000000000e+00  0.0000000000000000e+00  0.0000000000000000e+00  0.0000000000000000e+00  0.0000000000000000e+00  0.0000000000000000e+00  0.0000000000000000e+00  0.0000000000000000e+00  0.0000000000000000e+00  0.0000000000000000e+00  0.0000000000000000e+00  0.0000000000000000e+00  0.0000000000000000e+00  0.0000000000000000e+00  0.0000000000000000e+00  0.0000000000000000e+00  0.0000000000000000e+00  0.0000000000000000e+00  0.0000000000000000e+00  0.0000000000000000e+00  0.0000000000000000e+00  0.0000000000000000e+00  0.0000000000000000e+00  0.0000000000000000e+00  -1.8439924905438863e-02  -1.5522981233581760e-02  -1.0866803943202876e-02  -6.6144603990914708e-03  -3.8342190021333450e-03  -2.4009660728293992e-03  -1.8171743293896694e-03  -2.2833279969951326e-03  -9.8408801517820260e-04  -1.7285114571491988e-03  -4.1974071841329209e-03  -7.2012334514244209e-03  -1.0644938011477980e-02  -1.5013818127939690e-02  -1.8286625103901614e-02  -1.8784557768999857e-02  -1.5053102528840491e-02  -1.0260961399798114e-02  -5.6781230963829791e-03  -3.9050262217453420e-03  -2.4156397795483953e-03  -2.6233402443480444e-03  -3.7159530544124760e-03  -3.2082943589828001e-03  -3.8751168734025279e-03  -3.8831172026389349e-03  -3.2315373525529678e-03  -3.6120747228937256e-03  -2.0841142073607646e-03  -4.5423708336323858e-03  -6.8007296018459248e-03  -1.0599240739124235e-02  -1.4883621858374512e-02  -1.8752864853787920e-02  -1.8751807166202041e-02  -1.5344859699697112e-02  -1.0751767143135527e-02  -6.3828422124687124e-03  -3.8825756602563679e-03  -2.5070572873206040e-03  -1.9954248128762932e-03  -1.3306286453717490e-03  -9.3453793307062688e-04  -1.7874125612240561e-03  -3.1210427595233306e-03  -5.5932298174502645e-03  -1.0720326551783578e-02  -1.5146444590582007e-02  -1.8710438904274027e-02  -1.8621944631509256e-02  -1.5088040513758659e-02  -1.0980910113110295e-02  -6.9487775643070392e-03  -4.5246113488515548e-03  -2.3998572083476252e-03  -3.8513005232638925e-03  -2.8256444424737308e-03  -3.3645539693763285e-03  -3.7046011165385285e-03  -3.6233642429804392e-03  -3.5513369658329826e-03  -2.3121620653387925e-03  -2.9359891260316798e-03  -4.2686003754063163e-03  -5.8904580340022310e-03  -1.0344070431238635e-02  -1.5084098235788556e-02  -1.8725706214217274e-02  6.3528876878464355e-02  6.1870708205042230e-02  6.3975920675053269e-02  6.1300059387924447e-02  5.6923831624783518e-02  6.7310170283962550e-02  6.3660146259989031e-02  5.9626961351004398e-02  6.0411161837322307e-02  6.7944923927797565e-02  7.2844921849623268e-02  7.1704969806321822e-02  6.9104607475207372e-02  6.2277334571285300e-02  4.6285955042390317e-02  7.9044310432510312e-02  5.2982585260479158e-02  5.0703833788843425e-02  7.1262886820018703e-02  5.0522385816148041e-02  3.7747895973585140e-02  3.9159107286865315e-02  3.6262295609779067e-02  3.5648510866837159e-02  2.1691753352307355e-02  2.4495124200280737e-02  2.2477164510458322e-02  2.2096684062165296e-02  5.0483961299262928e-02  9.4045812564405709e-02  1.2035366196545845e-01  2.2976802826263071e-01  2.9501920614131527e-01  6.0050665613512810e-01  7.4674098963385871e-01  7.9637808303411384e-01  3.4606131772472348e-01  9.7122917788212848e-01  1.0065410084075463e+00  7.5504124518434412e-01  9.4294385430022409e-01  4.9050422910599184e-01  7.2719855461285410e-01  1.0037660013051657e+00  8.3264617341972258e-01  9.9775508758821341e-01  7.7753103529545808e-01  8.8505953606995524e-01  5.5637528875181630e-01  5.8373586518004628e-01  8.5732296091894089e-01  1.0460833107408840e+00  9.2168073600556299e-01  1.0816111289353907e+00  8.9692716425376229e-01  1.0310938428876688e+00  8.5221065558423947e-01  9.0177436825996982e-01  6.4783288750684920e-01  7.7802721758632787e-01  9.6137275143827039e-01  7.6666413909726472e-01  9.4623650385570979e-01  4.7296023535546838e-01  2.6447135508039449e-01  3.0704451998666832e-01  4.1120432036652738e-01  2.4857930792408123e-01  1.5142294804592027e-01  6.4383784747841921e-01  9.3547393999314110e-01  1.3726514672693305e-01  2.1329387635011696e-01  5.1307435366972332e-01  3.7819161484582969e-01  6.4507871841758202e-01  9.7738391900657839e-01  5.8914679469915143e-01  9.2439666607933935e-01  1.1353924835697271e+00  9.7202745961655346e-01  7.9516578270485483e-01  7.9413673501858140e-01  1.0306660688299549e+00  7.7914989503290677e-01  6.0472611373656970e-01  4.8804746243949887e-01  6.1817899341327354e-01  2.5631160809751752e-01  1.7245049219821176e-01  1.0054695953030292e-01  1.0791177701010952e-01  1.1553279845928603e+00  1.4811779353796073e-01  1.9644308062681887e-01  1.1932071110051699e-01  1.5292818904893837e-01  9.2146127630723801e-02  8.5265162440379419e-02  1.3912227324612894e-01  4.9240998415778708e-01  1.3712556509878593e-01  8.4734502507224391e-02  1.9138456722180783e-01  3.3623230852846359e-01  1.9191773125344044e-01  2.0068271332816168e-01  2.4028157482280654e-01  1.3741250017350687e-01  1.1251345556208205e-01  9.0675365210714856e-02  1.4342402874825402e-01  1.0005399310510281e-01  1.5346431031330773e-01  7.5482671294548873e-02  3.2427610531076162e-01  1.2443774384024615e+00  8.9042331893016899e-02  1.2241213750793354e+00  5.3083123550545896e-01  1.5994025906157580e-01  4.1817417554185032e-01  1.7278464863681836e-01  9.6507703697000444e-02  8.6352075646643392e-02  1.5028998480907460e-01  5.0757772269555190e-01  2.1550425584118743e-01  1.1227996559894733e-01  1.0289672330752253e+00  5.9749184028512252e-02  4.8641653751500265e-02  4.6868727227687484e-01  1.7730697654737271e-01  2.1273001462436347e-01  3.3105282763002430e-01  2.0209825364514539e-01  1.1308408347128997e-01  1.7682104379778599e-01  1.0582527986718444e-01  8.5417181597146410e-02  6.3298908444159044e-02  3.4606070767587781e-02  5.1527814532860899e-02  9.5519403411057427e-02  7.0130296156373742e-02  6.8719905011813465e-02  6.5720937261003684e-02  3.1772986195551030e-02  3.4550875930694454e-02  7.2097523834890792e-02  1.4351720054092859e-01  3.9699758903238919e-01  5.1691896216200309e-02  6.9168765611456295e-02  7.7778809001944879e-02  5.1517428900215240e-02  8.1234742982807071e-02  7.3069886308561399e-02  6.6154291468511831e-02  3.6440401084911533e-02  5.6557377031099122e-02  6.7340147934359787e-02  5.8378609608915784e-02  8.6439475550007333e-02  7.0300780375175662e-02  1.2575359178942869e-01  7.0199186093363480e-02  6.1691611878806618e-02  3.6394982236054127e-02  3.3075424183905536e-02  8.5822972563985717e-02  2.1290313957497439e-01  6.1461547894564025e-02  6.8616397274470609e-02  9.6024482965742869e-02  2.2085082205979382e-02  2.2429255139474118e-02  2.1637553770728620e-02  2.2820214550134797e-02  6.2014932257001207e-02  1.1285492879941623e+00  1.2900746512143613e+00  1.0359007211695632e-01  5.9349034217226183e-02  5.5091030068270853e-02  5.4076813843341946e-02  3.4596136487489965e-02  6.7088452308961974e-02  8.9731390827869517e-02  1.7127389817891303e-01  2.2834362768682115e-01  6.9288947225889227e-02  1.8357599387826562e-01  1.1659540834629663e+00  1.2035641924226623e+00  8.6435489773609853e-01  1.3859565266426938e-01  9.0183495190155227e-02  1.5052315011497019e-01  1.3299118676480581e-01  1.5577421176731732e-01  6.0676941332619083e-02  5.8951347632368957e-02  1.1709366352683401e+00  4.9540058108150486e-02  1.3999895279567492e-01  1.2468027165089188e-01  5.3345854808425175e-01  7.6104898100988153e-02  4.6248851911670102e-01  8.8502991697940903e-01  5.7968554488239253e-02  1.3143882584991715e+00  6.4942808110229511e-01  2.6792211822491158e-02  3.9216983376238962e-01  1.3854811207383153e-01  1.2811656745878489e-01  1.1569992470996344e+00  6.0500485095104570e-02  1.1045743277077469e-01  1.3744605333228260e-01  1.3273254036696338e+00  9.3078482862100409e-02  2.0202207061411889e-01  1.2930324011457401e+00  3.0697624768559961e-01  1.5317402312225439e-01  1.3217015161573478e+00  5.4178865473736337e-01  8.2938105993460728e-02  9.8425159911194202e-02  2.4163196009486143e-01  7.0863191555996263e-01  1.3471827076889620e-01  5.2581603387724322e-02  4.2331678413082380e-01  2.2174014591677348e-02  2.2436018345228122e-02  2.1600393530314354e-02  2.2555247759680808e-02  9.8090853567959602e-02  5.5628148646687081e-02  7.9184685761635010e-02  6.3388746093984871e-02  1.3160588266023346e-01  7.1589208725766285e-01  6.4017694945348896e-02  8.2492950809885029e-02  3.1860198193036926e-01  8.4345053049085150e-01  6.6242675443861898e-01  8.7504576077668039e-01  7.6698728148760137e-02  8.4559206202658133e-01  1.5035939319562952e-01  6.9221860321480833e-01  1.3227697126283828e+00  1.5210405979624128e-01  5.6067842829870251e-01  2.7559696901934594e-01  1.3530575821893076e-01  3.4416960207090186e-01  8.2535021774476569e-01  1.2011185877276831e+00  3.5874963239706834e-02  -1.4785566882983176e-02  -1.4648560453501741e-02  -1.6261124641001722e-02  -2.0937526070913860e-02  -1.6264698079944889e-02  -2.1241044355798652e-02  -1.4790887111161694e-02  -1.5865427895251912e-02  -1.4891558640394528e-02  -1.6083408411038332e-02  -2.1002856406120960e-02  -2.1057093969369001e-02  -1.3518629793347850e-02  -1.2931365707896813e-02  -1.4072532624543128e-02  -1.3216121698945411e-02  -1.4312971202404590e-02  -2.0526583910377514e-02  -2.0560263769525598e-02  -1.4161059895007310e-02  -2.3861869498552700e-02  -2.5153283001500555e-02  -1.4983933401341272e-02  -1.5097843626504414e-02  -2.2523913249945852e-02  -2.5077577402286833e-02  -2.5833546368973163e-02  -2.5887295629582634e-02  -2.6242601006290996e-02  -2.6286367750843212e-02  -1.4402953004857165e-02  -1.4053521465530298e-02  -1.4370241234993216e-02  -1.4040563737286115e-02  -1.4192487448250581e-02  -1.4114244244023058e-02  -1.4245063444602401e-02  -2.6244620874368994e-02  -2.6304167829804069e-02  -2.5573870364666754e-02  -2.4871011795138898e-02  -1.4751487437179243e-02  -1.4545999523205263e-02  -1.4429582921116851e-02  -1.4182183719269116e-02  -1.4431685843149012e-02  -1.4168331455756581e-02  -1.5182104032258836e-02  -1.3985806093872165e-02  -2.4887080654588493e-02  -2.4287583509999978e-02  -1.4388834569892497e-02  -1.4017153042709184e-02  -1.4399970288978175e-02  -2.4150815807719207e-02  -2.5210698338820847e-02  -2.5530929537059086e-02  -2.6078460478938123e-02  -2.6215238444158240e-02  -2.6357829201876785e-02  -2.6143956284134212e-02  -2.6276256981228988e-02  -2.6128848708248650e-02  -2.5886202530142184e-02  -2.4071336111282298e-02  -2.5206078153902869e-02  -2.5464890666309171e-02  -2.6012551907879433e-02  -2.5640020176071730e-02  -2.6142708989858189e-02  -2.6287880078836576e-02  -2.6211222295230447e-02  -2.6056817200003392e-02  -2.5834711732744202e-02  -1.8050698802467152e-02  -2.3872894080060096e-02  -2.5165822463985233e-02  -2.5086096162313280e-02  -2.5851638187517734e-02  -2.5890776187380365e-02  -2.6250542191830345e-02  -2.6306934831030252e-02  -2.6264989933406296e-02  -2.6271729503266623e-02  -1.3095429363125148e-02  -1.3870633804342636e-02  -1.6640271956623782e-02  -1.6612096946334143e-02  -2.5943660910949941e-02  -2.5620664278419109e-02  -2.5489723856875382e-02  -2.5653433204752021e-02  -2.5718657770834191e-02  -2.5681832767373753e-02  -1.4092296635655041e-02  -2.5401935396364535e-02  -2.6004421547463536e-02  -2.5609554831326060e-02  -2.5378636054710975e-02  -2.5850664753055714e-02  -2.5938786871519803e-02  -1.7792505493331223e-02  -2.4098957769041932e-02  -2.4237053886073227e-02  -1.2215027854425803e-02  -1.1919381395484681e-02  -1.2146747504940972e-02  -2.4093363919543229e-02  -2.4179744297938295e-02  -2.3352831323277545e-02  -2.2929939470092944e-02  -2.4653456857868811e-02  -2.5183101891784639e-02  -2.4575589875198995e-02  -2.5066909337092463e-02  -2.3914923075884553e-02  -2.4884548285839494e-02  -2.3458034162153099e-02  -2.4026915454618467e-02  -2.2844944135325507e-02  -2.2953797463044167e-02  -2.4043603459598922e-02  -2.4900594901394534e-02  -2.3504367578580612e-02  -2.3952383255996600e-02  -2.2851041704999697e-02  -2.3017905811559179e-02  -2.2202979119806197e-02  -2.2242515923119738e-02  -2.1691586557667238e-02  -2.1751085640249270e-02  -2.1351872116925467e-02  -2.1553495521298101e-02  -2.1248160130740514e-02  -2.1651366485836775e-02  -2.2145611992181898e-02  -2.2169025848571798e-02  -2.1613225895008480e-02  -2.1671708610784695e-02  -2.1265104571861527e-02  -2.1469595070849275e-02  -2.1150266406109879e-02  -2.1569300429649552e-02  -2.3953648419949545e-02  -2.3951415892630744e-02  -2.5662156986452214e-02  -2.5592524190627533e-02  -2.3911621820041321e-02  -2.3746634700857017e-02  -2.1441717925192595e-02  -2.2051075622770103e-02  -2.1773741343687786e-02  -2.2690490565680489e-02  -2.2195322727110157e-02  -2.1343750088207672e-02  -2.1964967357952659e-02  -2.1669499344200788e-02  -2.2606682650516810e-02  -2.2096913711539511e-02  -2.5806850164769010e-02  -2.4534674634063329e-02  -2.4147401506078123e-02  -2.1913273483075885e-02  -2.2633942763442431e-02  -2.1976822963563583e-02  -2.2682402954870614e-02  -2.1085164608000431e-02  -2.1977153070150631e-02  -2.1188535925754145e-02  -2.2123331748745551e-02  -2.1439038244774247e-02  -1.9907012852263296e-02  -2.1492271797578195e-02  -2.3285468459648198e-02  -2.2354741528540237e-02  -2.1658754595750805e-02  -1.9803763316706014e-02  -2.3351826716738938e-02  -2.2055314949060201e-02  -2.2768851627271193e-02  -2.1439779460724874e-02  -2.2847920261396711e-02  -2.1104315468775104e-02  -2.1104361263596681e-02  -2.0702378623582977e-02  -2.2489541540087213e-02  -2.0979389568043724e-02  -2.2934144587084076e-02  -1.8222655667519926e-02  -2.5141133894352980e-02  -9.5055223263335806e-03  -2.3830890723900523e-02  -2.5290098084963228e-02  -2.0774317272288758e-02  -2.0370888467102190e-02  -2.1647558653623184e-02  -2.0834306933021903e-02  -2.4589277747722498e-02  -2.4496275045682296e-02  -2.4013502562664261e-02  -2.4899299448851810e-02  -2.4040309097299324e-02  -2.4344679951028500e-02  -2.3516886119488503e-02  -2.3111558846686489e-02  -2.2530836455556150e-02  -2.3985560518692228e-02  -2.2424990364213956e-02  -2.1870920321384098e-02  -2.1328617802431404e-02  -2.1257355430496137e-02  -2.0651561897008511e-02  -2.0911538897952959e-02  -2.0271363074817219e-02  -2.2436139608483053e-02  -2.2326634552543870e-02  -2.1066024793048702e-02  -2.2951234993186125e-02  -2.1798885007588451e-02  -2.0971806529160284e-02  -1.8605696124359351e-02  -2.0805359146070346e-02  -2.1175907830142154e-02  -2.1507134431641820e-02  -2.0279630153640184e-02  -9.0440977114108981e-03  -9.7966321954872596e-03  -9.3294373735865604e-03  -2.4820455329756238e-02  -2.3435685165631569e-02  -2.5315626598684152e-02  -2.3368114323173258e-02  -2.4388229920172790e-02  -1.8708335654441001e-02  -1.9464396203440138e-02  -1.9559179205486110e-02  -2.2195932438521034e-02  -2.3250161247124698e-02  -2.3980272406302659e-02  -2.2963452063714525e-02  -2.1995362394852617e-02  -2.1998116819641953e-02  -2.1826756995278612e-02  -2.1097926458031709e-02  -2.1354160318898887e-02  -2.0918807755852920e-02  -2.0556025754631557e-02  -2.0873722864046096e-02  -2.0159046518253086e-02  -2.0527338922655528e-02  -2.0915076697956583e-02  -2.1148935630750310e-02  -2.0983648807560654e-02  -2.1913293353265938e-02  -2.1409987946687671e-02  -2.2495112027208958e-02  -2.2373983442352516e-02  -2.3538789027342581e-02  -2.2575395656501011e-02  -2.4299844605200700e-02  -2.2214115057993117e-02  -2.3979411372181101e-02  -2.1229306818207692e-02  -2.2347298374285573e-02  -2.0574218955723127e-02  -2.4478886486470623e-02  -2.3966597579163400e-02  -2.0507630392695205e-02  -1.9415166430434394e-02  -2.1251198904958180e-02  -2.0606779324849587e-02  -2.4584783583323930e-02  -1.9994726094481791e-02  -2.3639338604111590e-02  -2.0029315158289041e-02  -1.9086940746940940e-02  -2.1072040224827660e-02  -2.4400401624875567e-02  -1.9895385148327522e-02  -2.3125431041315515e-02  -1.9419171043199675e-02  -2.0006663003509145e-02  -2.0338176478632512e-02  -1.9128584440246791e-02  -2.1854095608988565e-02  -2.1124906683095437e-02  -2.0526967151702963e-02  -1.9735252479839725e-02  -2.1624545158664139e-02  -2.2536525671788432e-02  -1.9853099919199545e-02  -2.0605313931842409e-02  -1.6532544786681706e-02  -1.8982176203769869e-02  -2.0392442117683100e-02  -2.3724243090801067e-02  -2.1561787825460980e-02  -2.0693516096032871e-02  -1.6664