<?xml version="1.0"?>
<VTKFile type="UnstructuredGrid"  version="0.1"  >
<UnstructuredGrid>
<Piece  NumberOfPoints="1297" NumberOfCells="2496">
<Points>
<DataArray  type="Float64"  NumberOfComponents="3"  format="ascii">0 0 0  0 1 0  1 1 0  1 0 0  1.1 -0.1 0  -0.1 -0.1 0  1.1 1.1 0  -0.1 1.1 0  0.2689404822683787 0.6949969883040407 0  0.2689788835625566 0.3052113757037719 0  0.7313546793154562 0.3050235620095419 0  0.731179917174955 0.6950624603005874 0  0.5000886955320735 0.5000813100355385 0  0 0.9499999999997918 0  0 0.8999999999995836 0  0 0.8499999999996529 0  0 0.7999999999999998 0  0 0.7500000000003466 0  0 0.7000000000006934 0  0 0.6500000000010401 0  0 0.6000000000013869 0  0 0.5500000000017335 0  0 0.5000000000020587 0  0 0.4500000000018723 0  0 0.4000000000016644 0  0 0.3500000000014564 0  0 0.3000000000012483 0  0 0.2500000000010403 0  0 0.2000000000008322 0  0 0.1500000000006241 0  0 0.100000000000416 0  0 0.05000000000020799 0  0.04999999999989965 0 0  0.09999999999981467 0 0  0.1499999999997036 0 0  0.1999999999995579 0 0  0.2499999999994121 0 0  0.2999999999992664 0 0  0.3499999999991206 0 0  0.3999999999989749 0 0  0.4499999999988292 0 0  0.4999999999986943 0 0  0.5499999999988151 0 0  0.5999999999989468 0 0  0.6499999999990784 0 0  0.69999999999921 0 0  0.7499999999993417 0 0  0.7999999999994734 0 0  0.8499999999996051 0 0  0.8999999999997368 0 0  0.9499999999998684 0 0  1 0.04999999999989965 0  1 0.09999999999981467 0  1 0.1499999999997036 0  1 0.1999999999995579 0  1 0.2499999999994121 0  1 0.2999999999992664 0  1 0.3499999999991206 0  1 0.3999999999989749 0  1 0.4499999999988292 0  1 0.4999999999986943 0  1 0.5499999999988151 0  1 0.5999999999989468 0  1 0.6499999999990784 0  1 0.69999999999921 0  1 0.7499999999993417 0  1 0.7999999999994734 0  1 0.8499999999996051 0  1 0.8999999999997368 0  1 0.9499999999998684 0  0.9499999999997918 1 0  0.8999999999995836 1 0  0.8499999999996529 1 0  0.7999999999999998 1 0  0.7500000000003466 1 0  0.7000000000006934 1 0  0.6500000000010401 1 0  0.6000000000013869 1 0  0.5500000000017335 1 0  0.5000000000020587 1 0  0.4500000000018723 1 0  0.4000000000016644 1 0  0.3500000000014564 1 0  0.3000000000012483 1 0  0.2500000000010403 1 0  0.2000000000008322 1 0  0.1500000000006241 1 0  0.100000000000416 1 0  0.05000000000020799 1 0  -0.1 1.05000000000004 0  -0.1 1.000000000000079 0  -0.1 0.9500000000001624 0  -0.1 0.9000000000003032 0  -0.1 0.850000000000444 0  -0.1 0.8000000000005848 0  -0.1 0.7500000000007256 0  -0.1 0.7000000000008665 0  -0.1 0.6500000000010508 0  -0.1 0.6000000000012352 0  -0.1 0.5500000000014196 0  -0.1 0.500000000001539 0  -0.1 0.4500000000014195 0  -0.1 0.4000000000013 0  -0.1 0.3500000000011588 0  -0.1 0.3000000000010178 0  -0.1 0.2500000000008986 0  -0.1 0.2000000000007579 0  -0.1 0.1500000000006174 0  -0.1 0.1000000000005272 0  -0.1 0.05000000000040083 0  -0.1 2.671196597248127e-13 0  -0.1 -0.0499999999998666 0  -0.0500000000000906 -0.1 0  -1.730560139634463e-13 -0.1 0  0.04999999999975802 -0.1 0  0.09999999999961506 -0.1 0  0.1499999999994613 -0.1 0  0.199999999999302 -0.1 0  0.2499999999991446 -0.1 0  0.2999999999990088 -0.1 0  0.3499999999988296 -0.1 0  0.3999999999986936 -0.1 0  0.4499999999985143 -0.1 0  0.4999999999984002 -0.1 0  0.5499999999985247 -0.1 0  0.5999999999986493 -0.1 0  0.6499999999987955 -0.1 0  0.6999999999989417 -0.1 0  0.7499999999990659 -0.1 0  0.7999999999992116 -0.1 0  0.8499999999993573 -0.1 0  0.8999999999994526 -0.1 0  0.949999999999584 -0.1 0  0.9999999999997226 -0.1 0  1.049999999999861 -0.1 0  1.1 -0.0500000000000906 0  1.1 -1.730560139634463e-13 0  1.1 0.04999999999975802 0  1.1 0.09999999999961506 0  1.1 0.1499999999994613 0  1.1 0.199999999999302 0  1.1 0.2499999999991446 0  1.1 0.2999999999990088 0  1.1 0.3499999999988296 0  1.1 0.3999999999986936 0  1.1 0.4499999999985143 0  1.1 0.4999999999984002 0  1.1 0.5499999999985247 0  1.1 0.5999999999986493 0  1.1 0.6499999999987955 0  1.1 0.6999999999989417 0  1.1 0.7499999999990659 0  1.1 0.7999999999992116 0  1.1 0.8499999999993573 0  1.1 0.8999999999994526 0  1.1 0.949999999999584 0  1.1 0.9999999999997226 0  1.1 1.049999999999861 0  1.05000000000004 1.1 0  1.000000000000079 1.1 0  0.9500000000001624 1.1 0  0.9000000000003032 1.1 0  0.850000000000444 1.1 0  0.8000000000005848 1.1 0  0.7500000000007256 1.1 0  0.7000000000008665 1.1 0  0.6500000000010508 1.1 0  0.6000000000012352 1.1 0  0.5500000000014196 1.1 0  0.500000000001539 1.1 0  0.4500000000014195 1.1 0  0.4000000000013 1.1 0  0.3500000000011588 1.1 0  0.3000000000010178 1.1 0  0.2500000000008986 1.1 0  0.2000000000007579 1.1 0  0.1500000000006174 1.1 0  0.1000000000005272 1.1 0  0.05000000000040083 1.1 0  2.671196597248127e-13 1.1 0  -0.0499999999998666 1.1 0  0.2654938172230539 0.6746962132345148 0  0.2644247862395309 0.6512773641701777 0  0.2641485765365111 0.6267104904627468 0  0.2637762623323803 0.6013411444182543 0  0.2630220259947153 0.5757065067107539 0  0.2619581824136031 0.5502576027234208 0  0.2610492781218838 0.5251102835349368 0  0.2607846481059456 0.5001985301778491 0  0.2612055048241665 0.4751978386973971 0  0.2621369352320981 0.4499751931496765 0  0.2631121320644956 0.4244415845986603 0  0.2637617532857776 0.3987831309648601 0  0.2641080352230357 0.3735162101943615 0  0.2644521974059496 0.3489857706142572 0  0.2655410580711026 0.3255339515919943 0  0.2887779050644038 0.2998704554685154 0  0.3115491830983881 0.2961100038780293 0  0.3355238101659676 0.2923205984286859 0  0.3600102934728976 0.2874279658452175 0  0.384216747353034 0.2811577087232258 0  0.4075939190513408 0.2741755762396817 0  0.4305125204831606 0.2676717428714752 0  0.4532750230225284 0.2623994268455713 0  0.4763868787689173 0.2584626989885355 0  0.4999083827216831 0.2569377149849014 0  0.5234759727802628 0.2580641593487704 0  0.546790770571175 0.2617034678754685 0  0.569368542390237 0.2676629436883721 0  0.5924021320173543 0.2738255463661787 0  0.6157106054144634 0.2808361785925718 0  0.6399297441022842 0.2870295887291689 0  0.6645305484010874 0.2919486272329653 0  0.6885695866549914 0.2958527274704874 0  0.71142909652183 0.2996960812631968 0  0.7347835330043475 0.3255060792763028 0  0.7359835104587522 0.3489461970923236 0  0.7364153292640362 0.3735862343516224 0  0.7368819651416542 0.3989841310851963 0  0.7377443478448213 0.4246480008946076 0  0.7388322577964781 0.4501071007588696 0  0.7396859978494023 0.4752073877573507 0  0.7399471163755712 0.5001469886583163 0  0.7395210378220323 0.525129199124774 0  0.7384870794440973 0.5502369249322124 0  0.737256256955899 0.5756343055604453 0  0.7363673266131349 0.6012514080094385 0  0.7360996326660419 0.6265890334480019 0  0.7357568085890479 0.6511803380519664 0  0.7345887196517021 0.6745945930568671 0  0.7112805160064946 0.700399862566976 0  0.6884600625938005 0.7042348054982307 0  0.6644163389225687 0.7081186918362111 0  0.6398331019086909 0.7129863665293793 0  0.6156653500440012 0.7191389403895821 0  0.5924187238957261 0.7261459597765938 0  0.5694595964254406 0.7324041225965768 0  0.5468955956632768 0.7384565607210742 0  0.523636099152982 0.7423220821207771 0  0.5000351449829381 0.7436043127161587 0  0.4764761024555679 0.7422298196440112 0  0.4532873369171477 0.7384618781369909 0  0.430376217284224 0.7331166314224048 0  0.407669458840104 0.7261378055233525 0  0.3844486793132598 0.7190204672430187 0  0.3601417242070469 0.7127913065057115 0  0.3355900740516747 0.7078941089851685 0  0.3115905174086246 0.7040873578059667 0  0.2887731964802022 0.7003263139207896 0  0.3716267148006414 0.3084048498591256 0  0.2825195577897029 0.4367344035987109 0  0.3717534274567789 0.6918110106434198 0  0.2824311053125493 0.5634918157747798 0  0.7183642822318483 0.588362007216051 0  0.6046565160511058 0.6977333650694222 0  0.6273425427781674 0.3075322458126837 0  0.7195938596863091 0.4360949294188337 0  0.720130574021919 0.5121225048611706 0  0.5577264529617453 0.2920527918691911 0  0.4424461278902651 0.2947227169642307 0  0.4411239073693401 0.7059967322567093 0  0.5353419417125935 0.7100066252655558 0  0.281099104975605 0.4875203668815009 0  0.2824607931756253 0.385563176846611 0  0.4882271730900622 0.2926890601339242 0  0.2879389706963157 0.6126747802105369 0  0.7128138249454578 0.3835110636490416 0  0.4883159759107309 0.7118530400503742 0  0.6524266108913431 0.6880638254976779 0  0.3232895952087498 0.3181907429318208 0  0.6771507420552932 0.3194075658474468 0  0.3240362316852424 0.6842418093386458 0  0.7148332709725939 0.6411185372245966 0  0.2848528243647228 0.3364072634830677 0  0.2874069505189922 0.6623016608756176 0  0.6996018097199499 0.6815376642120651 0  0.7162828975640489 0.3357088350595315 0  0.3477871025760157 0.6876497119389756 0  0.3596765701661526 0.6666026984923999 0  0.3828790594394738 0.6693597507299248 0  0.3701818076013331 0.6438042353845316 0  0.3940585946997874 0.6448574394384553 0  0.3805403976443423 0.6171003334085126 0  0.4094378704569389 0.6164981223308525 0  0.392687458703544 0.5858308820649907 0  0.3525195102985892 0.6159740842562695 0  0.4280918394434411 0.5852008582808742 0  0.4064689476485198 0.5497590599526215 0  0.3662100217201638 0.555671961255499 0  0.3826834977956335 0.5149313828793458 0  0.3454133190297531 0.5171914154421073 0  0.3583278927359866 0.480989056081076 0  0.3979199743159568 0.4756036030904875 0  0.3771367080393438 0.441690902146039 0  0.414172600655887 0.436669585390928 0  0.3938953237665036 0.4052136012589537 0  0.4283579270283838 0.3954201042658074 0  0.3589914340892886 0.4053991095123 0  0.403071458605123 0.3721349569828041 0  0.4377484979591595 0.6167628863121294 0  0.4644557076529239 0.5915539472550023 0  0.4834040689905766 0.6153703007801855 0  0.5023102909146651 0.5925765081572849 0  0.5203691845972788 0.6157476237399424 0  0.5392689990750014 0.5935172730627731 0  0.5572097752532708 0.6181039598927016 0  0.5762462753340617 0.5957515746236888 0  0.5947192685161882 0.6242658261852837 0  0.6127499082102335 0.5914693462320615 0  0.59705224483
[...]
<PointData  Scalars="state"> 
<DataArray  type="Float64"  Name="state"  format="ascii">0.0000000000000000e+00  0.0000000000000000e+00  0.0000000000000000e+00  0.0000000000000000e+00  0.0000000000000000e+00  0.0000000000000000e+00  0.0000000000000000e+00  0.0000000000000000e+00  -2.1207928965285696e-02  -2.1204744713348902e-02  -2.1276360527962057e-02  -2.1285825883060803e-02  1.3974379652991538e+00  0.0000000000000000e+00  0.0000000000000000e+00  0.0000000000000000e+00  0.0000000000000000e+00  0.0000000000000000e+00  0.0000000000000000e+00  0.0000000000000000e+00  0.0000000000000000e+00  0.0000000000000000e+00  0.0000000000000000e+00  0.0000000000000000e+00  0.0000000000000000e+00  0.0000000000000000e+00  0.0000000000000000e+00  0.0000000000000000e+00  0.0000000000000000e+00  0.0000000000000000e+00  0.0000000000000000e+00  0.0000000000000000e+00  0.0000000000000000e+00  0.0000000000000000e+00  0.0000000000000000e+00  0.0000000000000000e+00  0.0000000000000000e+00  0.0000000000000000e+00  0.0000000000000000e+00  0.0000000000000000e+00  0.0000000000000000e+00  0.0000000000000000e+00  0.0000000000000000e+00  0.0000000000000000e+00  0.0000000000000000e+00  0.0000000000000000e+00  0.0000000000000000e+00  0.0000000000000000e+00  0.0000000000000000e+00  0.0000000000000000e+00  0.0000000000000000e+00  0.0000000000000000e+00  0.0000000000000000e+00  0.0000000000000000e+00  0.0000000000000000e+00  0.0000000000000000e+00  0.0000000000000000e+00  0.0000000000000000e+00  0.0000000000000000e+00  0.0000000000000000e+00  0.0000000000000000e+00  0.0000000000000000e+00  0.0000000000000000e+00  0.0000000000000000e+00  0.0000000000000000e+00  0.0000000000000000e+00  0.0000000000000000e+00  0.0000000000000000e+00  0.0000000000000000e+00  0.0000000000000000e+00  0.0000000000000000e+00  0.0000000000000000e+00  0.0000000000000000e+00  0.0000000000000000e+00  0.0000000000000000e+00  0.0000000000000000e+00  0.0000000000000000e+00  0.0000000000000000e+00  0.0000000000000000e+00  0.0000000000000000e+00  0.0000000000000000e+00  0.0000000000000000e+00  0.0000000000000000e+00  0.0000000000000000e+00  0.0000000000000000e+00  0.0000000000000000e+00  0.0000000000000000e+00  0.0000000000000000e+00  0.0000000000000000e+00  0.0000000000000000e+00  0.0000000000000000e+00  0.0000000000000000e+00  0.0000000000000000e+00  0.0000000000000000e+00  0.0000000000000000e+00  0.0000000000000000e+00  0.0000000000000000e+00  0.0000000000000000e+00  0.0000000000000000e+00  0.0000000000000000e+00  0.0000000000000000e+00  0.0000000000000000e+00  0.0000000000000000e+00  0.0000000000000000e+00  0.0000000000000000e+00  0.0000000000000000e+00  0.0000000000000000e+00  0.0000000000000000e+00  0.0000000000000000e+00  0.0000000000000000e+00  0.0000000000000000e+00  0.0000000000000000e+00  0.0000000000000000e+00  0.0000000000000000e+00  0.0000000000000000e+00  0.0000000000000000e+00  0.0000000000000000e+00  0.0000000000000000e+00  0.0000000000000000e+00  0.0000000000000000e+00  0.0000000000000000e+00  0.0000000000000000e+00  0.0000000000000000e+00  0.0000000000000000e+00  0.0000000000000000e+00  0.0000000000000000e+00  0.0000000000000000e+00  0.0000000000000000e+00  0.0000000000000000e+00  0.0000000000000000e+00  0.0000000000000000e+00  0.0000000000000000e+00  0.0000000000000000e+00  0.0000000000000000e+00  0.0000000000000000e+00  0.0000000000000000e+00  0.0000000000000000e+00  0.0000000000000000e+00  0.0000000000000000e+00  0.0000000000000000e+00  0.0000000000000000e+00  0.0000000000000000e+00  0.0000000000000000e+00  0.0000000000000000e+00  0.0000000000000000e+00  0.0000000000000000e+00  0.0000000000000000e+00  0.0000000000000000e+00  0.0000000000000000e+00  0.0000000000000000e+00  0.0000000000000000e+00  0.0000000000000000e+00  0.0000000000000000e+00  0.0000000000000000e+00  0.0000000000000000e+00  0.0000000000000000e+00  0.0000000000000000e+00  0.0000000000000000e+00  0.0000000000000000e+00  0.0000000000000000e+00  0.0000000000000000e+00  0.0000000000000000e+00  0.0000000000000000e+00  0.0000000000000000e+00  0.0000000000000000e+00  0.0000000000000000e+00  0.0000000000000000e+00  0.0000000000000000e+00  0.0000000000000000e+00  0.0000000000000000e+00  0.0000000000000000e+00  0.0000000000000000e+00  0.0000000000000000e+00  0.0000000000000000e+00  0.0000000000000000e+00  0.0000000000000000e+00  0.0000000000000000e+00  0.0000000000000000e+00  0.0000000000000000e+00  0.0000000000000000e+00  0.0000000000000000e+00  -1.7934866507026213e-02  -1.4777653722639155e-02  -9.8225897900100848e-03  -5.3265141625787327e-03  -2.2497384185989700e-03  -3.1401011685728143e-04  5.8125984455439667e-04  2.3087465139799335e-04  1.3794037640511450e-03  2.4238453752806221e-04  -2.6948429407894037e-03  -5.9353926305171891e-03  -9.6213849920702820e-03  -1.4249166386945539e-02  -1.7710829833330891e-02  -1.8331443477851300e-02  -1.4412705831675660e-02  -9.4917617157425291e-03  -4.6380843890265078e-03  -2.5521762884007110e-03  -7.2181697029874187e-04  -7.6315907138901538e-04  -1.7937092880288077e-03  -1.3364374744577936e-03  -2.0181115259351517e-03  -2.0287168212587410e-03  -1.4082552567473291e-03  -1.6884706778600718e-03  -4.2122522858145217e-04  -3.1767356246993131e-03  -5.7470122524847208e-03  -9.7696963043491999e-03  -1.4241854349547660e-02  -1.8296013963150993e-02  -1.8214723538691146e-02  -1.4568741585844021e-02  -9.7887448661848724e-03  -5.0772670475458977e-03  -2.3613533111940112e-03  -5.4239299377794388e-04  3.5870600740118592e-04  1.1988449962678145e-03  1.5356205731836975e-03  2.4145659170858019e-04  -1.5850032362525132e-03  -4.3407874469390687e-03  -9.7120645948314821e-03  -1.4430163985208725e-02  -1.8204968675525856e-02  -1.8233010639968052e-02  -1.4505723051675344e-02  -1.0237328886099205e-02  -5.9552689316169031e-03  -3.2437383232158273e-03  -7.8399269654598567e-04  -2.0023732917045923e-03  -1.0061263744978125e-03  -1.6039344142952778e-03  -1.9302410370503362e-03  -1.8180624624860196e-03  -1.7091051059571585e-03  -5.5951026039967550e-04  -1.3208918323830345e-03  -3.0022308307359738e-03  -4.8736543679616896e-03  -9.6280929816621695e-03  -1.4549112661186421e-02  -1.8332464272515343e-02  6.5752897097118096e-02  6.4813075032415277e-02  6.6138716478332360e-02  6.4461693758801175e-02  5.9064835342342269e-02  6.9727585029560279e-02  6.5976131623273468e-02  6.2565408592621427e-02  6.4735200827111705e-02  7.1199440269300432e-02  7.6381502932105869e-02  7.4714744620564169e-02  7.2169382798581039e-02  6.6518326340999565e-02  4.8366781767260413e-02  8.2542485774423136e-02  5.5400013978818101e-02  5.3016886123427372e-02  7.4194388120707666e-02  5.2491279482038425e-02  3.8684519636255847e-02  4.0120992679083194e-02  3.7073024849382429e-02  3.6563196521762376e-02  2.1800867012231322e-02  2.4555400809918054e-02  2.2443997000335395e-02  2.2125046766896382e-02  5.2371987918284853e-02  1.0079868912426522e-01  1.2385546605340150e-01  2.4819136514052034e-01  3.1351615444320580e-01  6.2430140574590265e-01  7.6787750311949077e-01  8.1391945473490834e-01  3.9799543999585313e-01  9.9537838298190784e-01  1.0341749715745505e+00  7.8700353314399074e-01  9.6597392400040594e-01  5.2167666040503491e-01  7.5962839118071301e-01  1.0313326554153486e+00  8.5784247659185864e-01  1.0280419310741740e+00  7.9259030440396749e-01  9.0589759699914296e-01  5.9681150649521608e-01  6.1511829009866514e-01  8.7525290126481714e-01  1.0656055774166284e+00  9.3987100844652161e-01  1.1000218070057859e+00  9.1414833121333949e-01  1.0510875174541088e+00  8.6946973223947399e-01  9.2467872157863640e-01  6.7262957898935938e-01  7.8946440826504360e-01  9.8999837439424909e-01  7.9809495510020678e-01  9.7055855794407575e-01  5.1525014597337693e-01  2.9084960683071726e-01  3.1875006724817873e-01  4.0805579054694791e-01  2.7002394566502413e-01  1.6139324674092995e-01  6.5926774063759097e-01  9.5602896250687908e-01  1.4156962412249699e-01  2.2274214507858586e-01  5.0064869823042923e-01  3.7480408060700077e-01  6.4645586621257833e-01  9.9970378591481912e-01  5.8597471533310996e-01  9.4467188264712876e-01  1.1565978575359976e+00  9.9388444598707237e-01  8.1350518275921024e-01  8.1574010775065475e-01  1.0608202661534465e+00  7.9490984231922013e-01  6.3214510168962601e-01  5.3074321759831888e-01  6.6156077274705449e-01  3.0433489473775821e-01  1.8996333143241811e-01  1.0837773955172846e-01  1.1711379980999967e-01  1.1843093346281524e+00  1.5672906039502155e-01  2.2984834325080786e-01  1.2592010298576006e-01  1.6349545830621373e-01  9.9517088868531625e-02  8.9240144220183351e-02  1.5843746743479625e-01  4.9316848253681983e-01  1.4111793431902009e-01  9.0582960816074476e-02  1.9605086816725040e-01  3.7115216539237417e-01  2.0741039370840872e-01  2.3364468586981460e-01  2.5782673070123863e-01  1.4512002556242537e-01  1.2231661589562857e-01  9.7086681316529894e-02  1.6079337323641471e-01  1.0602538087705717e-01  1.6164564925277281e-01  8.0641305556709689e-02  3.5681942808589945e-01  1.2701465514665524e+00  9.3921748767769361e-02  1.2513985536341041e+00  5.6470767481328221e-01  1.7198448618999532e-01  4.4800522344622118e-01  1.8450671861372450e-01  1.0338758898679386e-01  9.2412655261622720e-02  1.5988041966082872e-01  5.3635714901488363e-01  2.2978703250144145e-01  1.1992747311661693e-01  1.0587732088388109e+00  6.2900752257266337e-02  5.1048321263909888e-02  5.0648733630768183e-01  1.8689611549409885e-01  2.3112846251102928e-01  3.5187895867284225e-01  2.0908775270036126e-01  1.1648951144537323e-01  1.9076306820571329e-01  1.1665662069338829e-01  9.0634971993933625e-02  6.6864467782977624e-02  3.6023431154727462e-02  5.3635357965900986e-02  1.0222247309303814e-01  7.4429726917011801e-02  7.1732800443618933e-02  6.8834522050037775e-02  3.2830469067926457e-02  3.5600940757002549e-02  7.5009150765417754e-02  1.4778223061971432e-01  4.1274400876376155e-01  5.4027410119251842e-02  7.1767120464429124e-02  8.1088811686912357e-02  5.3542735367058399e-02  8.4563120550544088e-02  7.6435967092363111e-02  6.8862091918137344e-02  3.7385764968201229e-02  5.9441794379893838e-02  7.0367378784892839e-02  6.0782966497569091e-02  9.1525378007712432e-02  7.3249653050481145e-02  1.2988050780364271e-01  7.3237961519374173e-02  6.3719748014532049e-02  3.7210329053324512e-02  3.4458220755922621e-02  9.1633101570263317e-02  2.1420175972207098e-01  6.4295254816590527e-02  7.1434412860688815e-02  1.0360476085506762e-01  2.2116026557785887e-02  2.2358238105056698e-02  2.1695785989380132e-02  2.2798746602599274e-02  6.5248062891437975e-02  1.1534271353256063e+00  1.3140297075326608e+00  1.1084177906988912e-01  6.1785036913691263e-02  5.7389229545834954e-02  5.7527819637739806e-02  3.5535559687753619e-02  7.0269469389842229e-02  9.5464914398753584e-02  1.7336754305082822e-01  2.4953048063423891e-01  7.2380341016971092e-02  1.9590531289021909e-01  1.1949781024085266e+00  1.2289788784365692e+00  8.8788704249230876e-01  1.5522970643517800e-01  9.6865212143005308e-02  1.5374678987198900e-01  1.3841728423449143e-01  1.5979950434245205e-01  6.4829348695975203e-02  6.3160727968546437e-02  1.1969315860043510e+00  5.2428823031123457e-02  1.4409587043250310e-01  1.2925816853995151e-01  5.5616737592899401e-01  8.1419600092217326e-02  4.6822213011830094e-01  9.0982610185846424e-01  6.1578098616375330e-02  1.3393388132000759e+00  6.7389520076393750e-01  2.7717680670959057e-02  4.0129097218027571e-01  1.4312854222015106e-01  1.3211691298278747e-01  1.1787028323376643e+00  6.4173802918493089e-02  1.1461050564868534e-01  1.4070859184826737e-01  1.3526401121337068e+00  9.9401434882532461e-02  2.1743518591147556e-01  1.3168124961017251e+00  3.3294538896450188e-01  1.5725495952266380e-01  1.3468575247792172e+00  5.3363835665602666e-01  8.8058758206790419e-02  1.0189133707567509e-01  2.5399895400514139e-01  7.0697960759321665e-01  1.4001931576290158e-01  5.6075630515365807e-02  4.2907384968309498e-01  2.2083330264486657e-02  2.2323394205031252e-02  2.1497512904218058e-02  2.2370207171335813e-02  1.0711313486500178e-01  5.8652984019281387e-02  8.4237123637337818e-02  6.7864853798396560e-02  1.3636035849900049e-01  7.3461383842730754e-01  6.7019899398239186e-02  8.9732381080561793e-02  3.7352546394088348e-01  8.5768426367284101e-01  6.6929944652214657e-01  8.9425297495178124e-01  8.1346246698721356e-02  8.5968923287419308e-01  1.5947249288856652e-01  7.2956213401829717e-01  1.3478776931762886e+00  1.6080505020067745e-01  5.8381949756700291e-01  2.9029375923068851e-01  1.3931606708750566e-01  3.6926014776955440e-01  8.4124235012003501e-01  1.2287817052018615e+00  3.7339875807565336e-02  -1.3275564206709032e-02  -1.3168178104034511e-02  -1.5093865635672049e-02  -2.0218535331172748e-02  -1.5120287608975559e-02  -2.0514301929578711e-02  -1.3256580933736693e-02  -1.4668638169108541e-02  -1.3348465158575021e-02  -1.4862009717939266e-02  -2.0225032477375858e-02  -2.0300888911474451e-02  -1.3332312722341434e-02  -1.2751239929465582e-02  -1.3866796709478593e-02  -1.3037437355952298e-02  -1.2683031364071425e-02  -1.9594172254098801e-02  -1.9591116363332772e-02  -1.2532461937265095e-02  -2.3151251693293112e-02  -2.4348571469128635e-02  -1.3534944942057571e-02  -1.3596947550556142e-02  -2.1713138892774566e-02  -2.4206996774813385e-02  -2.5003092391931610e-02  -2.5096481783745458e-02  -2.5435270909067029e-02  -2.5502754809519718e-02  -1.4109398422900049e-02  -1.3744735408960844e-02  -1.4055206998096372e-02  -1.3756162456366247e-02  -1.3924242810358251e-02  -1.3844749629591455e-02  -1.3968406150737200e-02  -2.5479826345736718e-02  -2.5537688677784543e-02  -2.4701719194308622e-02  -2.3947654885662761e-02  -1.4250964136823061e-02  -1.4157264041940790e-02  -1.4046820482084579e-02  -1.3710898580074475e-02  -1.3913891064459848e-02  -1.3671863426878159e-02  -1.4697688070904174e-02  -1.3731567588335205e-02  -2.3987451176567927e-02  -2.3310879530797194e-02  -1.4121904352903640e-02  -1.3746577714603390e-02  -1.4111929743418209e-02  -2.3498921226106122e-02  -2.4405331860133411e-02  -2.4717024260172141e-02  -2.5249245336875368e-02  -2.5400361623292084e-02  -2.5535292422477953e-02  -2.5295435849101638e-02  -2.5486718714107525e-02  -2.5314657327067107e-02  -2.5139745667850533e-02  -2.3463364325758424e-02  -2.4430094107614111e-02  -2.4695937979257683e-02  -2.5223376931066296e-02  -2.4822488114617250e-02  -2.5370304594202527e-02  -2.5501843256844497e-02  -2.5459282545130558e-02  -2.5288705221256591e-02  -2.5121672527084322e-02  -1.6905707160776655e-02  -2.3132324342286216e-02  -2.4329655074125382e-02  -2.4193814377920449e-02  -2.4994648014803163e-02  -2.5069817921375328e-02  -2.5417233361366059e-02  -2.5491134804371041e-02  -2.5470286764916798e-02  -2.5482931117290983e-02  -1.1336727137388383e-02  -1.2157253858850551e-02  -1.5330568173755622e-02  -1.5343011331361785e-02  -2.5087943847207889e-02  -2.4930194497440827e-02  -2.4767601781996638e-02  -2.4946159725167800e-02  -2.4986944198235706e-02  -2.4892824957609878e-02  -1.3867892390120106e-02  -2.4703072405246451e-02  -2.5205283363765540e-02  -2.4931119312497304e-02  -2.4710573942731687e-02  -2.5098889260088880e-02  -2.5158193387704954e-02  -1.6634772051518292e-02  -2.3494736398105971e-02  -2.3590756387666081e-02  -1.2063247620609724e-02  -1.1769149104500876e-02  -1.1990596594306053e-02  -2.3482075422220819e-02  -2.3589136017768731e-02  -2.2525332813313096e-02  -2.2013251062725610e-02  -2.3975230535695145e-02  -2.4408928010203890e-02  -2.3931500685633732e-02  -2.4337559228825866e-02  -2.3287324052163171e-02  -2.4143145364223580e-02  -2.2812056850509747e-02  -2.3255854042458703e-02  -2.2187204509726336e-02  -2.2183734232617790e-02  -2.3367662838590261e-02  -2.4096860278662542e-02  -2.2808159482590840e-02  -2.3130994587519098e-02  -2.2141292006857792e-02  -2.2186244983553347e-02  -2.1488672801419591e-02  -2.1399213280719375e-02  -2.0979205530024494e-02  -2.0901766773499284e-02  -2.0644542042026308e-02  -2.0707022742195411e-02  -2.0548163198047024e-02  -2.0815895517736344e-02  -2.1487605099621849e-02  -2.1391749173890060e-02  -2.0959576654781844e-02  -2.0888489884913437e-02  -2.0617013284543888e-02  -2.0688023445412707e-02  -2.0508499455399766e-02  -2.0797468457773468e-02  -2.3356120658822869e-02  -2.3341793926392792e-02  -2.4849126446692734e-02  -2.4816661412733681e-02  -2.3338211563395102e-02  -2.3166883573712979e-02  -2.0742459906776693e-02  -2.1231594099570233e-02  -2.1083040184116449e-02  -2.1890014807648215e-02  -2.1520789715585732e-02  -2.0700064786699279e-02  -2.1208384769073618e-02  -2.1031380525474513e-02  -2.1863672436813173e-02  -2.1465495020913508e-02  -2.5030494110383286e-02  -2.3879482891489289e-02  -2.3449102656676078e-02  -2.1007021450865516e-02  -2.1765969416985526e-02  -2.1012356725412705e-02  -2.1755677491173016e-02  -2.0147098802110464e-02  -2.1459907133344811e-02  -2.0197720322640937e-02  -2.1565792045629698e-02  -2.0508047404135789e-02  -1.9316945413462818e-02  -2.0495553786937192e-02  -2.2645780125538861e-02  -2.1798200463161787e-02  -2.1180087591497868e-02  -1.9267365544083287e-02  -2.2746110376468304e-02  -2.1538588195644241e-02  -2.1894278529771938e-02  -2.0988310818822783e-02  -2.1914941911249580e-02  -2.0332633233897918e-02  -2.0416699643055442e-02  -1.9871864159223609e-02  -2.1461483915171858e-02  -2.0516594057989095e-02  -2.2348239563459191e-02  -1.7890384025916375e-02  -2.4314673031921388e-02  -9.4120006416425032e-03  -2.2839506485054516e-02  -2.4508922972043341e-02  -2.0229932596649607e-02  -1.9479492410561221e-02  -2.0571512746309775e-02  -2.0239494357141462e-02  -2.3768113503669197e-02  -2.3725298564592340e-02  -2.3058353557308127e-02  -2.3957497080190272e-02  -2.3040613658149516e-02  -2.3361972764850390e-02  -2.2470122331197433e-02  -2.2202352551832394e-02  -2.1542741587110656e-02  -2.3117765962835560e-02  -2.1296024853039702e-02  -2.0815748238925486e-02  -2.0110713615343636e-02  -2.0160831768229904e-02  -1.9363667542555071e-02  -1.9778448075545657e-02  -1.8935953810864152e-02  -2.1869271016403971e-02  -2.1811519267421420e-02  -2.0618880284811302e-02  -2.2389510345650329e-02  -2.0627776074764081e-02  -1.9721162744527246e-02  -1.8273711260938342e-02  -1.9617302636439769e-02  -2.0730855921927884e-02  -2.1030220491859680e-02  -1.9297625474986705e-02  -8.9554749912745223e-03  -9.6972198367585184e-03  -9.2344230645093010e-03  -2.3974401699212264e-02  -2.2811163265173490e-02  -2.4470367177436569e-02  -2.2632366251177611e-02  -2.3484979163800920e-02  -1.8293338665679237e-02  -1.9090827520009530e-02  -1.9112213539800915e-02  -2.1423893683032023e-02  -2.2339501292681582e-02  -2.2984554642131342e-02  -2.1900377410828772e-02  -2.1071626252607230e-02  -2.0921097242588792e-02  -2.0662799850338889e-02  -1.9854780054317244e-02  -2.0303246190121260e-02  -1.9705849148753521e-02  -1.9547702903040521e-02  -1.9732337675200613e-02  -1.8805990074112124e-02  -1.9226610660312692e-02  -1.9848312911650647e-02  -1.9934781128201833e-02  -1.9986825394835848e-02  -2.0827275353040586e-02  -2.0195355695404576e-02  -2.1369353326120746e-02  -2.1396562491964328e-02  -2.2493565055589797e-02  -2.1699136795353919e-02  -2.3374535334807434e-02  -2.1440650221781231e-02  -2.3195806662626276e-02  -2.0257914985961308e-02  -2.1437090263432528e-02  -1.9577002126190141e-02  -2.3636835484719152e-02  -2.3097641426432843e-02  -1.9624911496749938e-02  -1.8803096689571936e-02  -2.0223209454508156e-02  -1.9549209655927775e-02  -2.3744209119380025e-02  -1.8668464216552078e-02  -2.2820745369497322e-02  -1.9093222528015465e-02  -1.8010905562522914e-02  -1.9846653957919170e-02  -2.3406226594204198e-02  -1.9268165934432379e-02  -2.2458092908721701e-02  -1.8031129617207885e-02  -1.9446133936115412e-02  -1.9787587777879468e-02  -1.7990055087393046e-02  -2.0696181091387982e-02  -2.0562630108256381e-02  -1.9257859805118245e-02  -1.8385532575658611e-02  -2.0452511016495992e-02  -2.1435685324332248e-02  -1.9338095438132898e-02  -2.0078899866999921e-02  -1.5977663932908313e-02  -1.7558821475207983e-02  -1.9106423122962846e-02  -2.3038158636893482e-02  -2.0896207649784098e-02  -2.0175045574954042e-02  -1.627958791395