<?xml version="1.0"?>
<VTKFile type="UnstructuredGrid"  version="0.1"  >
<UnstructuredGrid>
<Piece  NumberOfPoints="1297" NumberOfCells="2496">
<Points>
<DataArray  type="Float64"  NumberOfComponents="3"  format="ascii">0 0 0  0 1 0  1 1 0  1 0 0  1.1 -0.1 0  -0.1 -0.1 0  1.1 1.1 0  -0.1 1.1 0  0.3043512022538886 0.6650760705110933 0  0.3049662450175296 0.3353959970048219 0  0.6953579109844865 0.3348738758660136 0  0.6953595099651217 0.6651475828726191 0  0.5000891013398223 0.5001404417569945 0  0 0.9499999999997918 0  0 0.8999999999995836 0  0 0.8499999999996529 0  0 0.7999999999999998 0  0 0.7500000000003466 0  0 0.7000000000006934 0  0 0.6500000000010401 0  0 0.6000000000013869 0  0 0.5500000000017335 0  0 0.5000000000020587 0  0 0.4500000000018723 0  0 0.4000000000016644 0  0 0.3500000000014564 0  0 0.3000000000012483 0  0 0.2500000000010403 0  0 0.2000000000008322 0  0 0.1500000000006241 0  0 0.100000000000416 0  0 0.05000000000020799 0  0.04999999999989965 0 0  0.09999999999981467 0 0  0.1499999999997036 0 0  0.1999999999995579 0 0  0.2499999999994121 0 0  0.2999999999992664 0 0  0.3499999999991206 0 0  0.3999999999989749 0 0  0.4499999999988292 0 0  0.4999999999986943 0 0  0.5499999999988151 0 0  0.5999999999989468 0 0  0.6499999999990784 0 0  0.69999999999921 0 0  0.7499999999993417 0 0  0.7999999999994734 0 0  0.8499999999996051 0 0  0.8999999999997368 0 0  0.9499999999998684 0 0  1 0.04999999999989965 0  1 0.09999999999981467 0  1 0.1499999999997036 0  1 0.1999999999995579 0  1 0.2499999999994121 0  1 0.2999999999992664 0  1 0.3499999999991206 0  1 0.3999999999989749 0  1 0.4499999999988292 0  1 0.4999999999986943 0  1 0.5499999999988151 0  1 0.5999999999989468 0  1 0.6499999999990784 0  1 0.69999999999921 0  1 0.7499999999993417 0  1 0.7999999999994734 0  1 0.8499999999996051 0  1 0.8999999999997368 0  1 0.9499999999998684 0  0.9499999999997918 1 0  0.8999999999995836 1 0  0.8499999999996529 1 0  0.7999999999999998 1 0  0.7500000000003466 1 0  0.7000000000006934 1 0  0.6500000000010401 1 0  0.6000000000013869 1 0  0.5500000000017335 1 0  0.5000000000020587 1 0  0.4500000000018723 1 0  0.4000000000016644 1 0  0.3500000000014564 1 0  0.3000000000012483 1 0  0.2500000000010403 1 0  0.2000000000008322 1 0  0.1500000000006241 1 0  0.100000000000416 1 0  0.05000000000020799 1 0  -0.1 1.05000000000004 0  -0.1 1.000000000000079 0  -0.1 0.9500000000001624 0  -0.1 0.9000000000003032 0  -0.1 0.850000000000444 0  -0.1 0.8000000000005848 0  -0.1 0.7500000000007256 0  -0.1 0.7000000000008665 0  -0.1 0.6500000000010508 0  -0.1 0.6000000000012352 0  -0.1 0.5500000000014196 0  -0.1 0.500000000001539 0  -0.1 0.4500000000014195 0  -0.1 0.4000000000013 0  -0.1 0.3500000000011588 0  -0.1 0.3000000000010178 0  -0.1 0.2500000000008986 0  -0.1 0.2000000000007579 0  -0.1 0.1500000000006174 0  -0.1 0.1000000000005272 0  -0.1 0.05000000000040083 0  -0.1 2.671196597248127e-13 0  -0.1 -0.0499999999998666 0  -0.0500000000000906 -0.1 0  -1.730560139634463e-13 -0.1 0  0.04999999999975802 -0.1 0  0.09999999999961506 -0.1 0  0.1499999999994613 -0.1 0  0.199999999999302 -0.1 0  0.2499999999991446 -0.1 0  0.2999999999990088 -0.1 0  0.3499999999988296 -0.1 0  0.3999999999986936 -0.1 0  0.4499999999985143 -0.1 0  0.4999999999984002 -0.1 0  0.5499999999985247 -0.1 0  0.5999999999986493 -0.1 0  0.6499999999987955 -0.1 0  0.6999999999989417 -0.1 0  0.7499999999990659 -0.1 0  0.7999999999992116 -0.1 0  0.8499999999993573 -0.1 0  0.8999999999994526 -0.1 0  0.949999999999584 -0.1 0  0.9999999999997226 -0.1 0  1.049999999999861 -0.1 0  1.1 -0.0500000000000906 0  1.1 -1.730560139634463e-13 0  1.1 0.04999999999975802 0  1.1 0.09999999999961506 0  1.1 0.1499999999994613 0  1.1 0.199999999999302 0  1.1 0.2499999999991446 0  1.1 0.2999999999990088 0  1.1 0.3499999999988296 0  1.1 0.3999999999986936 0  1.1 0.4499999999985143 0  1.1 0.4999999999984002 0  1.1 0.5499999999985247 0  1.1 0.5999999999986493 0  1.1 0.6499999999987955 0  1.1 0.6999999999989417 0  1.1 0.7499999999990659 0  1.1 0.7999999999992116 0  1.1 0.8499999999993573 0  1.1 0.8999999999994526 0  1.1 0.949999999999584 0  1.1 0.9999999999997226 0  1.1 1.049999999999861 0  1.05000000000004 1.1 0  1.000000000000079 1.1 0  0.9500000000001624 1.1 0  0.9000000000003032 1.1 0  0.850000000000444 1.1 0  0.8000000000005848 1.1 0  0.7500000000007256 1.1 0  0.7000000000008665 1.1 0  0.6500000000010508 1.1 0  0.6000000000012352 1.1 0  0.5500000000014196 1.1 0  0.500000000001539 1.1 0  0.4500000000014195 1.1 0  0.4000000000013 1.1 0  0.3500000000011588 1.1 0  0.3000000000010178 1.1 0  0.2500000000008986 1.1 0  0.2000000000007579 1.1 0  0.1500000000006174 1.1 0  0.1000000000005272 1.1 0  0.05000000000040083 1.1 0  2.671196597248127e-13 1.1 0  -0.0499999999998666 1.1 0  0.2957383741793698 0.6526298073426188 0  0.2869049967155954 0.6352171221212722 0  0.2785510852005676 0.6146283738418206 0  0.2706537510603832 0.5916654460042097 0  0.263709825358375 0.5681292766250823 0  0.258423377521927 0.545135641058301 0  0.2553376084525248 0.5226242301235193 0  0.2543861040537557 0.5004043042196432 0  0.2555970381827976 0.478027032734503 0  0.2590432879219589 0.4552835391448498 0  0.2645061913540444 0.4320615988798255 0  0.2714255119509187 0.4085122237588307 0  0.2792264671554164 0.3857281008570241 0  0.287587556553568 0.3651880786004515 0  0.2964420486596192 0.3478193750735508 0  0.3160295658007314 0.3250551048809058 0  0.331427502965161 0.3137845527346565 0  0.3501007762047958 0.3020873346490102 0  0.370704689137823 0.2902081724459354 0  0.3917957339940344 0.2791160502046305 0  0.4126772690075308 0.2696327185812042 0  0.4337289467121833 0.2620554269484027 0  0.455151967122942 0.2564587131921484 0  0.4772735531149583 0.2527685003137002 0  0.4998612556306849 0.2513129157123579 0  0.5224252234030763 0.2523116022467195 0  0.5445556832442136 0.2557980927439408 0  0.5656983916677283 0.2615476055251345 0  0.5867046620667589 0.2690373690230601 0  0.6075213715556936 0.2785196781711382 0  0.6287273186415255 0.2895874519457088 0  0.6497438434139556 0.3014681670167025 0  0.6686573740954258 0.3131400062983641 0  0.6841495267660922 0.3244534443115435 0  0.7040810830994044 0.3476222142541287 0  0.7129644814099226 0.364994530526912 0  0.7214413585370472 0.3857602232605944 0  0.7293572886351614 0.408611803098778 0  0.7363012595165603 0.4320880821058489 0  0.7416856828865852 0.4552595225863423 0  0.7450808541067662 0.4779524762484239 0  0.7463438955210987 0.5004550259660109 0  0.7453387085341167 0.5230346220101855 0  0.7418810090234528 0.545723065369588 0  0.7363529361867028 0.568865071952685 0  0.7292787810455117 0.5922964992847674 0  0.7213777250296247 0.6148292499367523 0  0.7129661855844274 0.6353057084623762 0  0.7040870611322777 0.6524935139194408 0  0.68415831644412 0.6754863734547926 0  0.6685979305625348 0.6867436943961607 0  0.6496037930343596 0.6984755135648686 0  0.6286333311905032 0.7104050929585239 0  0.6075617133396954 0.7216920772395948 0  0.5868940928239861 0.7314960405591112 0  0.5659106527727534 0.7392823558452293 0  0.5446656818123453 0.7451984363784911 0  0.5225025914274976 0.7488570864024853 0  0.4999144083933735 0.7500883340396131 0  0.4773708626065427 0.7488448202512408 0  0.455343783100894 0.7451927782805854 0  0.4339463115939752 0.7393635892694822 0  0.4131631003747055 0.7314000663414878 0  0.3924287159194704 0.7215599044149991 0  0.3708454635105977 0.7101725538556488 0  0.3497651879967298 0.6982453221023966 0  0.330934249135224 0.6866433347281219 0  0.3154712453520127 0.6754193744644887 0  0.3808927328021438 0.3112611972648466 0  0.2836005642415927 0.4424604265004564 0  0.3810152596899314 0.6891623889958909 0  0.2830775837625374 0.5579108824912471 0  0.7134334653399946 0.5811419084409304 0  0.5976195513838739 0.6986696569628161 0  0.6178267154262228 0.3100089305872034 0  0.7184611543149122 0.4418287330728875 0  0.7236512837650881 0.5113777838438194 0  0.5544849690674625 0.2883397342964922 0  0.4452916190929248 0.2913540281626049 0  0.4443058170199433 0.7097921851684489 0  0.5334559814303415 0.7143928667275994 0  0.2777083796079385 0.4888125135349542 0  0.2936355471309489 0.3958868244839879 0  0.4886645922999575 0.2889812341431801 0  0.2979126843132163 0.6029385530690456 0  0.7013680336589765 0.3937365823763498 0  0.4888114666535862 0.7163190252524266 0  0.6396132009030607 0.6806527051776015 0  0.3401835936847256 0.3313641542234067 0  0.6601613435842717 0.3323338432270477 0  0.3404068009181489 0.6714058774773684 0  0.6974722514793252 0.6278053405789528 0  0.3080911882650811 0.3543548637085933 0  0.3092713863677706 0.6451230941798538 0  0.6773576788129638 0.6632126587543724 0  0.6927389437186569 0.3536888209278483 0  0.3601250661282256 0.6802292979857514 0  0.3694083799351351 0.6613148315894374 0  0.3901963322243071 0.6672503467452903 0  0.3771574653363 0.6403099981548537 0  0.3991625797475239 0.6435566067514557 0  0.3847667882923458 0.6150648963029695 0  0.412410176552739 0.6158968608698491 0  0.3949003761705918 0.5846938430215576 0  0.3584278317519397 0.6115650101914561 0  0.4295838642156835 0.5850568499781434 0  0.4074699967686387 0.5492714763883007 0  0.3676943334201577 0.5541119512449234 0  0.3833862116939104 0.5146578361538588 0  0.3459724903687445 0.5165454435945819 0  0.3590672058453792 0.4816998733401013 0  0.3986156704008169 0.4760283050947249 0  0.378645631670851 0.4430830434056933 0  0.4153686866363072 0.4371724271785687 0  0.3964875280643835 0.4064938107621168 0  0.430327644258325 0.3956630530901628 0  0.3627330634021071 0.408572759940567 0  0.4067609813459534 0.3730908004799636 0  0.4397673010123243 0.6168728903597737 0  0.4652707989758429 0.5919278631792614 0  0.4839064168944979 0.6159094859679357 0  0.5022003217347375 0.5931023532628995 0  0.5196316393170862 0.6163077547156072 0  0.5382415096373896 0.5939043870286516 0  0.5552028144118042 0.6183459820100777 0  0.5743021249830214 0.5956065701012933 0  0.5911043010858491 0.6236218753842461 0  0.610039956583488 0.5901892893256478 0  0.595792015
[...]
<PointData  Scalars="state"> 
<DataArray  type="Float64"  Name="state"  format="ascii">0.0000000000000000e+00  0.0000000000000000e+00  0.0000000000000000e+00  0.0000000000000000e+00  0.0000000000000000e+00  0.0000000000000000e+00  0.0000000000000000e+00  0.0000000000000000e+00  -1.8523613408600138e-02  -1.8576220243177909e-02  -1.8649435716285863e-02  -1.8557527384346219e-02  1.3469766494116864e+00  0.0000000000000000e+00  0.0000000000000000e+00  0.0000000000000000e+00  0.0000000000000000e+00  0.0000000000000000e+00  0.0000000000000000e+00  0.0000000000000000e+00  0.0000000000000000e+00  0.0000000000000000e+00  0.0000000000000000e+00  0.0000000000000000e+00  0.0000000000000000e+00  0.0000000000000000e+00  0.0000000000000000e+00  0.0000000000000000e+00  0.0000000000000000e+00  0.0000000000000000e+00  0.0000000000000000e+00  0.0000000000000000e+00  0.0000000000000000e+00  0.0000000000000000e+00  0.0000000000000000e+00  0.0000000000000000e+00  0.0000000000000000e+00  0.0000000000000000e+00  0.0000000000000000e+00  0.0000000000000000e+00  0.0000000000000000e+00  0.0000000000000000e+00  0.0000000000000000e+00  0.0000000000000000e+00  0.0000000000000000e+00  0.0000000000000000e+00  0.0000000000000000e+00  0.0000000000000000e+00  0.0000000000000000e+00  0.0000000000000000e+00  0.0000000000000000e+00  0.0000000000000000e+00  0.0000000000000000e+00  0.0000000000000000e+00  0.0000000000000000e+00  0.0000000000000000e+00  0.0000000000000000e+00  0.0000000000000000e+00  0.0000000000000000e+00  0.0000000000000000e+00  0.0000000000000000e+00  0.0000000000000000e+00  0.0000000000000000e+00  0.0000000000000000e+00  0.0000000000000000e+00  0.0000000000000000e+00  0.0000000000000000e+00  0.0000000000000000e+00  0.0000000000000000e+00  0.0000000000000000e+00  0.0000000000000000e+00  0.0000000000000000e+00  0.0000000000000000e+00  0.0000000000000000e+00  0.0000000000000000e+00  0.0000000000000000e+00  0.0000000000000000e+00  0.0000000000000000e+00  0.0000000000000000e+00  0.0000000000000000e+00  0.0000000000000000e+00  0.0000000000000000e+00  0.0000000000000000e+00  0.0000000000000000e+00  0.0000000000000000e+00  0.0000000000000000e+00  0.0000000000000000e+00  0.0000000000000000e+00  0.0000000000000000e+00  0.0000000000000000e+00  0.0000000000000000e+00  0.0000000000000000e+00  0.0000000000000000e+00  0.0000000000000000e+00  0.0000000000000000e+00  0.0000000000000000e+00  0.0000000000000000e+00  0.0000000000000000e+00  0.0000000000000000e+00  0.0000000000000000e+00  0.0000000000000000e+00  0.0000000000000000e+00  0.0000000000000000e+00  0.0000000000000000e+00  0.0000000000000000e+00  0.0000000000000000e+00  0.0000000000000000e+00  0.0000000000000000e+00  0.0000000000000000e+00  0.0000000000000000e+00  0.0000000000000000e+00  0.0000000000000000e+00  0.0000000000000000e+00  0.0000000000000000e+00  0.0000000000000000e+00  0.0000000000000000e+00  0.0000000000000000e+00  0.0000000000000000e+00  0.0000000000000000e+00  0.0000000000000000e+00  0.0000000000000000e+00  0.0000000000000000e+00  0.0000000000000000e+00  0.0000000000000000e+00  0.0000000000000000e+00  0.0000000000000000e+00  0.0000000000000000e+00  0.0000000000000000e+00  0.0000000000000000e+00  0.0000000000000000e+00  0.0000000000000000e+00  0.0000000000000000e+00  0.0000000000000000e+00  0.0000000000000000e+00  0.0000000000000000e+00  0.0000000000000000e+00  0.0000000000000000e+00  0.0000000000000000e+00  0.0000000000000000e+00  0.0000000000000000e+00  0.0000000000000000e+00  0.0000000000000000e+00  0.0000000000000000e+00  0.0000000000000000e+00  0.0000000000000000e+00  0.0000000000000000e+00  0.0000000000000000e+00  0.0000000000000000e+00  0.0000000000000000e+00  0.0000000000000000e+00  0.0000000000000000e+00  0.0000000000000000e+00  0.0000000000000000e+00  0.0000000000000000e+00  0.0000000000000000e+00  0.0000000000000000e+00  0.0000000000000000e+00  0.0000000000000000e+00  0.0000000000000000e+00  0.0000000000000000e+00  0.0000000000000000e+00  0.0000000000000000e+00  0.0000000000000000e+00  0.0000000000000000e+00  0.0000000000000000e+00  0.0000000000000000e+00  0.0000000000000000e+00  0.0000000000000000e+00  0.0000000000000000e+00  0.0000000000000000e+00  0.0000000000000000e+00  0.0000000000000000e+00  0.0000000000000000e+00  0.0000000000000000e+00  0.0000000000000000e+00  0.0000000000000000e+00  0.0000000000000000e+00  0.0000000000000000e+00  0.0000000000000000e+00  0.0000000000000000e+00  0.0000000000000000e+00  -1.5747843799848196e-02  -1.4210239088289457e-02  -1.1333223437529648e-02  -9.6264923750089201e-03  -8.7609771253512637e-03  -8.4134645994472512e-03  -8.0997042286886350e-03  -8.7726092098889489e-03  -7.3948024241037259e-03  -7.8455837587468099e-03  -9.0468299339361482e-03  -1.0107711265436461e-02  -1.1121186777402727e-02  -1.3599036644747589e-02  -1.5307491224681846e-02  -1.5940057855274282e-02  -1.3586249994979087e-02  -1.0952024461315680e-02  -8.9885886626681292e-03  -8.4248638768641658e-03  -7.0019606477724535e-03  -6.8011419863690577e-03  -7.2454060403248288e-03  -6.2806272443832328e-03  -6.9051100333212701e-03  -6.9909932505365022e-03  -6.6589625230634806e-03  -7.8537078868472915e-03  -6.5462825176414129e-03  -8.9586231840427348e-03  -9.8960071615408814e-03  -1.1202257935615797e-02  -1.3450216887136887e-02  -1.5905315527423122e-02  -1.6025832730470656e-02  -1.3922679216238481e-02  -1.1364173008756726e-02  -9.4337116807550643e-03  -8.7671880449367110e-03  -8.4847578155604255e-03  -8.4185410568720243e-03  -7.7809470837897554e-03  -7.3324622894350320e-03  -7.9040136506704529e-03  -8.2468798942651154e-03  -8.8468950659056789e-03  -1.1351001022187782e-02  -1.3791754664797833e-02  -1.5922426180710686e-02  -1.5731211794719643e-02  -1.3530540470446063e-02  -1.1474997395245733e-02  -9.8956390389649315e-03  -8.9540189289561683e-03  -6.9906773751782234e-03  -8.1414945840439599e-03  -6.4071304000120760e-03  -6.3987243169145430e-03  -6.5507569105239362e-03  -6.7109113523609858e-03  -7.1063288002587936e-03  -6.2786020278518774e-03  -7.3678000161397162e-03  -8.5134223795349934e-03  -8.9299599506617831e-03  -1.0850545807088175e-02  -1.3541875639146054e-02  -1.5853664345188874e-02  5.5183449190335951e-02  5.2798792877555782e-02  5.5788240775967612e-02  5.2305376386480654e-02  4.9180293497428855e-02  5.8577473228108877e-02  5.5153092807548855e-02  5.0892829885146346e-02  5.0111510911692386e-02  6.1683636046243447e-02  6.5394230880575027e-02  6.5382686165972620e-02  6.3893778011357746e-02  5.1959558109832341e-02  4.4180185693939486e-02  7.4384153039103534e-02  5.0330909480110556e-02  4.8965041440479536e-02  6.7263597882051301e-02  4.8672116705317674e-02  4.2201720994087033e-02  4.3769503160476272e-02  4.0475744429393487e-02  4.0241095813107024e-02  2.9607542128147275e-02  3.2435836989010550e-02  3.0615975648665830e-02  2.9986448752863021e-02  4.8537876363655939e-02  8.2820398840749640e-02  1.0784203322322089e-01  1.7649904819406151e-01  2.5833719847378589e-01  4.8865017032180458e-01  7.2772861835085112e-01  7.9482072829213024e-01  2.2301289384568748e-01  9.4111410487899072e-01  9.7833598123939469e-01  7.4337077195129087e-01  9.0591171147364613e-01  5.4565462649958929e-01  7.4439956291209297e-01  9.7676187875333220e-01  8.1360851365634823e-01  9.6620539533763306e-01  7.8149766470736071e-01  8.5665813166666460e-01  4.4636594401276891e-01  5.4449381742046676e-01  8.3545086402449753e-01  1.0260797862046860e+00  9.0082401682402768e-01  1.0678874521380839e+00  8.7843700976575545e-01  1.0095287975510867e+00  8.2695176811107585e-01  8.7532961101774587e-01  6.1509963827059000e-01  7.7509840124858187e-01  9.3297877644041882e-01  7.5238402807514415e-01  9.1388754702908548e-01  3.8126848920426915e-01  2.6049330923076364e-01  2.9331748709093952e-01  4.4194294394895711e-01  2.4854477689368512e-01  1.4346672712307071e-01  6.4873962111246619e-01  9.0674289446346601e-01  1.2632662399541186e-01  2.0343755101332395e-01  5.5431298039814381e-01  4.0958734075337927e-01  6.6181427417962146e-01  9.5237493245304805e-01  6.1185859609212023e-01  8.9619432070478589e-01  1.1182942420085935e+00  9.4583137896939784e-01  7.7397449175942279e-01  7.7895721122389583e-01  9.9777543721229800e-01  7.8173063719127289e-01  4.7371771760782971e-01  3.7752469079046369e-01  6.0295290127581236e-01  1.7261691178178235e-01  1.4179514256362699e-01  9.7832046800532382e-02  1.0295608053377554e-01  1.1368437275303376e+00  1.2945334667836733e-01  1.4802723431329065e-01  1.0784799426321327e-01  1.4421719191490551e-01  8.5200417430816314e-02  8.5464690140488853e-02  1.2088139985399142e-01  5.1988925747787007e-01  1.3792753680574496e-01  7.5727355963841364e-02  1.9584228924203320e-01  3.4129692683309509e-01  1.6163700515124241e-01  1.5122041618650769e-01  2.5121029469988171e-01  1.2574234580397195e-01  9.9762506555566344e-02  8.8234288741739497e-02  1.2759801230162690e-01  9.0173572769918525e-02  1.3985976511563145e-01  6.5808534621595569e-02  2.8980375879621223e-01  1.2187671315933648e+00  7.9686752865127039e-02  1.2008136569131063e+00  5.8049845405010869e-01  1.5503056710458252e-01  4.7387956531061587e-01  1.6515050628200911e-01  8.8375221703649184e-02  7.7671602272087220e-02  1.4012694757335842e-01  3.8461902258100633e-01  1.9080669683700130e-01  1.0345234246933259e-01  1.0131144072531362e+00  6.0813367337662329e-02  5.0620082054852682e-02  3.2288002126212934e-01  1.5030794261573696e-01  1.6321502523095580e-01  2.9388406737136552e-01  1.9109931589925208e-01  1.0055336312600902e-01  1.5020364838073175e-01  1.0232778064690293e-01  7.5234658195259610e-02  6.2984114559531804e-02  4.0545745698981291e-02  4.9164292275458564e-02  8.7651516715977304e-02  6.0436651424323445e-02  6.3852579061163137e-02  6.4730090897959683e-02  3.7913283882586073e-02  3.8582987207820871e-02  6.3930362591810383e-02  1.3483508586412984e-01  3.8203385339431606e-01  4.9421672377613898e-02  6.0220311267523717e-02  6.9181664750192315e-02  4.8613947350914996e-02  7.2634048764322778e-02  6.7384870556425988e-02  5.7198947715744547e-02  4.0266694799114960e-02  5.6215155731260180e-02  6.2741811317440957e-02  5.0953469499712981e-02  7.7032545812700512e-02  6.1837762841315466e-02  1.1513824394051726e-01  6.3821656828933454e-02  5.4161104182089317e-02  4.0974876630137325e-02  3.9207885028578603e-02  7.5514324665610949e-02  2.2707967431336151e-01  6.1563748148820423e-02  5.9480543627172436e-02  8.2949554799223349e-02  3.0039065173264691e-02  3.0383192820719725e-02  2.9515345149599876e-02  3.0712894528952032e-02  5.2862993160473819e-02  1.1038992072629275e+00  1.2664097294247845e+00  9.5125670668992565e-02  5.1516929617915229e-02  4.7967467053253145e-02  5.3899146966800662e-02  3.9017354749785453e-02  6.2033867145126917e-02  7.8677489947667489e-02  1.7639552290892216e-01  2.0874510776627120e-01  6.5246297776410611e-02  1.7817758206631037e-01  1.1509445906388445e+00  1.1773162865478908e+00  8.3199467906356561e-01  1.2565254961476305e-01  7.9554085244128353e-02  1.5053538308748288e-01  1.2075430074718843e-01  1.5026358149790400e-01  5.0068402104984915e-02  4.8876255186189141e-02  1.1438149696351914e+00  5.0723183430694367e-02  1.3289914173795994e-01  1.1382922417721693e-01  5.1461008597676294e-01  6.6028839838909614e-02  4.7857786976772260e-01  8.5427028071774813e-01  4.8282659682685920e-02  1.2891827661010120e+00  5.7564205944161828e-01  3.3333855293338030e-02  4.0265459879444693e-01  1.3227104692699324e-01  1.1944143469789924e-01  1.1401534430366800e+00  5.0486387763933285e-02  9.6862223516918311e-02  1.3869273023959791e-01  1.3031392579245700e+00  8.4288663138152239e-02  1.6359948110906888e-01  1.2692674486608786e+00  3.0991194315748832e-01  1.5410088812674447e-01  1.2970810171860987e+00  5.7228737851893641e-01  7.4032734743152251e-02  8.6281332378932332e-02  2.1788439483631161e-01  7.2206257834479259e-01  1.2783642561976549e-01  4.2484356559832924e-02  4.3818385660151632e-01  3.1389040705301206e-02  3.1788524387578357e-02  3.0762680136612347e-02  3.1871231639744736e-02  8.6218918877605466e-02  5.4771409304923281e-02  6.9804687697375079e-02  5.6543836035436362e-02  1.2265074605132191e-01  7.0489930113671828e-01  6.5448549424597338e-02  7.6144913357800090e-02  2.0326432245718837e-01  8.2548071742841800e-01  6.7883582661085617e-01  8.4508455795000825e-01  6.8319458272609615e-02  8.2373794757562446e-01  1.3338721647843316e-01  7.1130911293680255e-01  1.2972582142576610e+00  1.3786134859789978e-01  5.5293881327962291e-01  2.5254360243563750e-01  1.3576033826769229e-01  3.9284927903245870e-01  8.0688337102895336e-01  1.1793748093615934e+00  4.0607908082716047e-02  -1.7696981308506991e-02  -1.7525632406049940e-02  -1.9094357446998892e-02  -2.1745698834166625e-02  -1.9133929171098386e-02  -2.2105454353003418e-02  -1.7752901891953062e-02  -1.8896398531459333e-02  -1.7806116196126324e-02  -1.9059822140516099e-02  -2.1896904539734838e-02  -2.1891935491318577e-02  -1.3858600119095548e-02  -1.3245228529971020e-02  -1.4440621508459896e-02  -1.3538906409055270e-02  -1.8379947193995945e-02  -2.1655888484684138e-02  -2.1692540465162273e-02  -1.8225048247029946e-02  -2.4504929556609923e-02  -2.6358464061493985e-02  -1.8636471621397730e-02  -1.8708064288407586e-02  -2.3123163237355457e-02  -2.6215327406024225e-02  -2.7007501629272613e-02  -2.6898892916764824e-02  -2.7632366684845734e-02  -2.7602411500889570e-02  -1.4927555905422375e-02  -1.4579606919137251e-02  -1.4909939894920980e-02  -1.4549300992190786e-02  -1.4653454134242259e-02  -1.4576468607650522e-02  -1.4716136214530776e-02  -2.7599154316461275e-02  -2.7679267886151136e-02  -2.7004762348976349e-02  -2.6273805600508397e-02  -1.5545071275136591e-02  -1.5190294922025498e-02  -1.5065092503711035e-02  -1.4940080718769386e-02  -1.5241358212740211e-02  -1.4957552374117842e-02  -1.5959346614021978e-02  -1.4448187590520705e-02  -2.6437765553230370e-02  -2.5933583861424418e-02  -1.4873678419405538e-02  -1.4493485243491635e-02  -1.4898801663287350e-02  -2.4662324048443721e-02  -2.6390450154231852e-02  -2.6569090773408802e-02  -2.7217162610175167e-02  -2.7521883436314541e-02  -2.7773761798043910e-02  -2.7518300632144305e-02  -2.7641595594999482e-02  -2.7545742864334130e-02  -2.7183969978567996e-02  -2.4524629340941621e-02  -2.6361577819678364e-02  -2.6465150607731833e-02  -2.7122471678202819e-02  -2.6686621536270251e-02  -2.7407599821866468e-02  -2.7673603106227549e-02  -2.7548984337190236e-02  -2.7435416551643929e-02  -2.7105251225653906e-02  -2.0046543438812604e-02  -2.4550170081531566e-02  -2.6398730368347667e-02  -2.6249438688708333e-02  -2.7058395892869746e-02  -2.6936937164238697e-02  -2.7662986440720051e-02  -2.7654064493726448e-02  -2.7651509187505138e-02  -2.7656540315202024e-02  -1.7622591444055685e-02  -1.8221115975099917e-02  -1.9529508830367255e-02  -1.9518436289629470e-02  -2.7417496348673860e-02  -2.6870820592280801e-02  -2.6796742317420911e-02  -2.6915935676149094e-02  -2.6999441000122110e-02  -2.7058788142335130e-02  -1.4485951533303534e-02  -2.6654002339301885e-02  -2.7417171421856873e-02  -2.6843532992852210e-02  -2.6601804457234098e-02  -2.7212254881961408e-02  -2.7309070552824027e-02  -2.0002629929990544e-02  -2.5218217772357485e-02  -2.5387547314061263e-02  -1.2480953082676730e-02  -1.2180726268154045e-02  -1.2413779274180069e-02  -2.5195423072191435e-02  -2.5278911591276789e-02  -2.4755797261388331e-02  -2.4470131301157487e-02  -2.5871870353845111e-02  -2.6550489942538127e-02  -2.5763955433677196e-02  -2.6395415056441576e-02  -2.5072572007853785e-02  -2.6231283547746283e-02  -2.4644570414881214e-02  -2.5437997632783791e-02  -2.4049239527931612e-02  -2.4373928013092499e-02  -2.5239796677818251e-02  -2.6298672951236283e-02  -2.4731021664364892e-02  -2.5391739067544886e-02  -2.4094389513918752e-02  -2.4485347155749362e-02  -2.3441187815226479e-02  -2.3734653495433720e-02  -2.2914447579991892e-02  -2.3237571660391334e-02  -2.2559221501361599e-02  -2.3024361126178353e-02  -2.2442533251975316e-02  -2.3108351523555871e-02  -2.3339242367451416e-02  -2.3605810427306220e-02  -2.2787534831088436e-02  -2.3104709525250174e-02  -2.2422722577563784e-02  -2.2887085233963534e-02  -2.2294688642758718e-02  -2.2972625799337437e-02  -2.5048310486018785e-02  -2.5070219362766790e-02  -2.6737096193722304e-02  -2.6641808029969925e-02  -2.4986589525012835e-02  -2.4830331076988447e-02  -2.2640383448153487e-02  -2.3495526781543041e-02  -2.2970412348905934e-02  -2.4103381727427344e-02  -2.3381504432499475e-02  -2.2494515642589436e-02  -2.3354516352830867e-02  -2.2820674922348776e-02  -2.3968659237002712e-02  -2.3249849261200266e-02  -2.7159328955615788e-02  -2.5727015888656238e-02  -2.5386581742121637e-02  -2.3653785510649200e-02  -2.4335538704536405e-02  -2.3761175135358296e-02  -2.4430374858064915e-02  -2.2806191886002702e-02  -2.2938106812628558e-02  -2.2938248258504941e-02  -2.3112657383520443e-02  -2.3191002728565824e-02  -2.0882952465315741e-02  -2.3306570275360591e-02  -2.4428667379230901e-02  -2.3360585694996803e-02  -2.2539282673756766e-02  -2.0735820349685165e-02  -2.4471078917316293e-02  -2.3018597800514459e-02  -2.4501865357698684e-02  -2.2288062819239434e-02  -2.4640625485582202e-02  -2.2399253519776216e-02  -2.2293365017728613e-02  -2.2058716890171772e-02  -2.4196607653531710e-02  -2.1827779326791516e-02  -2.3996608086436801e-02  -1.8834387771058985e-02  -2.6565528404173304e-02  -9.6715659675008798e-03  -2.5356866514519204e-02  -2.6670695597443578e-02  -2.1752253696760818e-02  -2.1809619725289952e-02  -2.3420710289698755e-02  -2.1848333961959884e-02  -2.5711636901947429e-02  -2.5566352382961250e-02  -2.5327909667683141e-02  -2.6306619350839659e-02  -2.5560917122811052e-02  -2.5998125791422702e-02  -2.5254232059586618e-02  -2.4629586071912742e-02  -2.4164539298934175e-02  -2.5448005826858612e-02  -2.4366440575205237e-02  -2.3601773167371644e-02  -2.3529918372905988e-02  -2.3064454746723959e-02  -2.3041194729369899e-02  -2.2795887500517802e-02  -2.2803500641941886e-02  -2.3460509526536135e-02  -2.3279750804281709e-02  -2.1898748570672616e-02  -2.3985193174933070e-02  -2.3898353364434511e-02  -2.3291557573149178e-02  -1.9227846365508117e-02  -2.2834551296096687e-02  -2.2015083361571784e-02  -2.2384480272819831e-02  -2.1852601950001410e-02  -9.1978272029359046e-03  -9.9743925676105856e-03  -9.4923905337277910e-03  -2.5998796971006675e-02  -2.3565135353071701e-02  -2.6778411916761044e-02  -2.4635239519603301e-02  -2.5925144489339386e-02  -1.9470537837489012e-02  -2.0155954908515652e-02  -2.0371512801158627e-02  -2.3494937451359187e-02  -2.4764493139078456e-02  -2.5610644773637094e-02  -2.4734819634468701e-02  -2.3503349777001036e-02  -2.3766953027227686e-02  -2.3912350108791901e-02  -2.3354077357380616e-02  -2.3060149595853272e-02  -2.3003289972740034e-02  -2.2179899422767192e-02  -2.2761462731695884e-02  -2.2739290220996768e-02  -2.2896615599104563e-02  -2.2640925117994190e-02  -2.3250904469083549e-02  -2.2588098307285497e-02  -2.3687791468746552e-02  -2.3634403434674611e-02  -2.4385154172163685e-02  -2.3977515265047062e-02  -2.5259280503011398e-02  -2.4016687332163375e-02  -2.5853198677700466e-02  -2.3512734678286056e-02  -2.5311422841177052e-02  -2.3179463499489000e-02  -2.4150571616605502e-02  -2.2541688436252361e-02  -2.5977552492954109e-02  -2.5508390842333833e-02  -2.1934696935315821e-02  -2.0477731201665350e-02  -2.3245455728722969e-02  -2.2619766394114411e-02  -2.5920910722053808e-02  -2.2609111959444244e-02  -2.5202426328080660e-02  -2.1524458326220398e-02  -2.1327576042732395e-02  -2.3358649898816839e-02  -2.5916984346520386e-02  -2.0983524571076381e-02  -2.4293364530746007e-02  -2.2213725325219483e-02  -2.0960212520254297e-02  -2.1290667394455572e-02  -2.1408794041988945e-02  -2.3886795932748808e-02  -2.2130293379041460e-02  -2.2984761707302948e-02  -2.2433604792290941e-02  -2.3756129409670441e-02  -2.4447296145269665e-02  -2.0766014052260640e-02  -2.1551201055706959e-02  -1.7471022591329929e-02  -2.1896012396102338e-02  -2.2847524916496414e-02  -2.4942626592492051e-02  -2.2724347590704085e-02  -2.1623273303324701e-02  -1.7366