<?xml version="1.0"?>
<VTKFile type="UnstructuredGrid"  version="0.1"  >
<UnstructuredGrid>
<Piece  NumberOfPoints="1297" NumberOfCells="2496">
<Points>
<DataArray  type="Float64"  NumberOfComponents="3"  format="ascii">0 0 0  0 1 0  1 1 0  1 0 0  1.1 -0.1 0  -0.1 -0.1 0  1.1 1.1 0  -0.1 1.1 0  0.2944950939474796 0.673731726540974 0  0.2949718090003987 0.3269211649065396 0  0.7054223480637728 0.3262464844423671 0  0.7053752280462469 0.6738389131890771 0  0.5000956841157328 0.5001524427216483 0  0 0.9499999999997918 0  0 0.8999999999995836 0  0 0.8499999999996529 0  0 0.7999999999999998 0  0 0.7500000000003466 0  0 0.7000000000006934 0  0 0.6500000000010401 0  0 0.6000000000013869 0  0 0.5500000000017335 0  0 0.5000000000020587 0  0 0.4500000000018723 0  0 0.4000000000016644 0  0 0.3500000000014564 0  0 0.3000000000012483 0  0 0.2500000000010403 0  0 0.2000000000008322 0  0 0.1500000000006241 0  0 0.100000000000416 0  0 0.05000000000020799 0  0.04999999999989965 0 0  0.09999999999981467 0 0  0.1499999999997036 0 0  0.1999999999995579 0 0  0.2499999999994121 0 0  0.2999999999992664 0 0  0.3499999999991206 0 0  0.3999999999989749 0 0  0.4499999999988292 0 0  0.4999999999986943 0 0  0.5499999999988151 0 0  0.5999999999989468 0 0  0.6499999999990784 0 0  0.69999999999921 0 0  0.7499999999993417 0 0  0.7999999999994734 0 0  0.8499999999996051 0 0  0.8999999999997368 0 0  0.9499999999998684 0 0  1 0.04999999999989965 0  1 0.09999999999981467 0  1 0.1499999999997036 0  1 0.1999999999995579 0  1 0.2499999999994121 0  1 0.2999999999992664 0  1 0.3499999999991206 0  1 0.3999999999989749 0  1 0.4499999999988292 0  1 0.4999999999986943 0  1 0.5499999999988151 0  1 0.5999999999989468 0  1 0.6499999999990784 0  1 0.69999999999921 0  1 0.7499999999993417 0  1 0.7999999999994734 0  1 0.8499999999996051 0  1 0.8999999999997368 0  1 0.9499999999998684 0  0.9499999999997918 1 0  0.8999999999995836 1 0  0.8499999999996529 1 0  0.7999999999999998 1 0  0.7500000000003466 1 0  0.7000000000006934 1 0  0.6500000000010401 1 0  0.6000000000013869 1 0  0.5500000000017335 1 0  0.5000000000020587 1 0  0.4500000000018723 1 0  0.4000000000016644 1 0  0.3500000000014564 1 0  0.3000000000012483 1 0  0.2500000000010403 1 0  0.2000000000008322 1 0  0.1500000000006241 1 0  0.100000000000416 1 0  0.05000000000020799 1 0  -0.1 1.05000000000004 0  -0.1 1.000000000000079 0  -0.1 0.9500000000001624 0  -0.1 0.9000000000003032 0  -0.1 0.850000000000444 0  -0.1 0.8000000000005848 0  -0.1 0.7500000000007256 0  -0.1 0.7000000000008665 0  -0.1 0.6500000000010508 0  -0.1 0.6000000000012352 0  -0.1 0.5500000000014196 0  -0.1 0.500000000001539 0  -0.1 0.4500000000014195 0  -0.1 0.4000000000013 0  -0.1 0.3500000000011588 0  -0.1 0.3000000000010178 0  -0.1 0.2500000000008986 0  -0.1 0.2000000000007579 0  -0.1 0.1500000000006174 0  -0.1 0.1000000000005272 0  -0.1 0.05000000000040083 0  -0.1 2.671196597248127e-13 0  -0.1 -0.0499999999998666 0  -0.0500000000000906 -0.1 0  -1.730560139634463e-13 -0.1 0  0.04999999999975802 -0.1 0  0.09999999999961506 -0.1 0  0.1499999999994613 -0.1 0  0.199999999999302 -0.1 0  0.2499999999991446 -0.1 0  0.2999999999990088 -0.1 0  0.3499999999988296 -0.1 0  0.3999999999986936 -0.1 0  0.4499999999985143 -0.1 0  0.4999999999984002 -0.1 0  0.5499999999985247 -0.1 0  0.5999999999986493 -0.1 0  0.6499999999987955 -0.1 0  0.6999999999989417 -0.1 0  0.7499999999990659 -0.1 0  0.7999999999992116 -0.1 0  0.8499999999993573 -0.1 0  0.8999999999994526 -0.1 0  0.949999999999584 -0.1 0  0.9999999999997226 -0.1 0  1.049999999999861 -0.1 0  1.1 -0.0500000000000906 0  1.1 -1.730560139634463e-13 0  1.1 0.04999999999975802 0  1.1 0.09999999999961506 0  1.1 0.1499999999994613 0  1.1 0.199999999999302 0  1.1 0.2499999999991446 0  1.1 0.2999999999990088 0  1.1 0.3499999999988296 0  1.1 0.3999999999986936 0  1.1 0.4499999999985143 0  1.1 0.4999999999984002 0  1.1 0.5499999999985247 0  1.1 0.5999999999986493 0  1.1 0.6499999999987955 0  1.1 0.6999999999989417 0  1.1 0.7499999999990659 0  1.1 0.7999999999992116 0  1.1 0.8499999999993573 0  1.1 0.8999999999994526 0  1.1 0.949999999999584 0  1.1 0.9999999999997226 0  1.1 1.049999999999861 0  1.05000000000004 1.1 0  1.000000000000079 1.1 0  0.9500000000001624 1.1 0  0.9000000000003032 1.1 0  0.850000000000444 1.1 0  0.8000000000005848 1.1 0  0.7500000000007256 1.1 0  0.7000000000008665 1.1 0  0.6500000000010508 1.1 0  0.6000000000012352 1.1 0  0.5500000000014196 1.1 0  0.500000000001539 1.1 0  0.4500000000014195 1.1 0  0.4000000000013 1.1 0  0.3500000000011588 1.1 0  0.3000000000010178 1.1 0  0.2500000000008986 1.1 0  0.2000000000007579 1.1 0  0.1500000000006174 1.1 0  0.1000000000005272 1.1 0  0.05000000000040083 1.1 0  2.671196597248127e-13 1.1 0  -0.0499999999998666 1.1 0  0.2871407546252736 0.6599397863368036 0  0.2811619464566322 0.6408416663222443 0  0.2761942292976471 0.6188001342450219 0  0.2712796621699676 0.5947281983859146 0  0.2663204159056586 0.570260469955165 0  0.262001115701391 0.5464822068924436 0  0.2592916397394455 0.5232935051368244 0  0.2584888404532762 0.5004477576488888 0  0.2596384617448846 0.4774922159739419 0  0.2626984721624042 0.4541496102745404 0  0.267122359490464 0.4301846568610512 0  0.2720145689463372 0.4057023129771464 0  0.2768333799571867 0.3817617612362382 0  0.2817494173608892 0.3597450087643393 0  0.2877050584098944 0.3406767343684025 0  0.3076928481828667 0.3179299190706449 0  0.3253386452566353 0.3094775059769601 0  0.3461817049330476 0.3010836205059684 0  0.3685548940073437 0.2917715236015789 0  0.390808036422822 0.2818290815917014 0  0.4122650801269226 0.2724911686881671 0  0.4335705499786279 0.2646747043131571 0  0.4550935738229784 0.2587385154581578 0  0.4772552721204103 0.2546861680286405 0  0.4998998479189928 0.2530616375051738 0  0.5225586948119085 0.2541242956873595 0  0.5448195967934282 0.2578863571554963 0  0.5661228315295219 0.2640672222913396 0  0.5874631828205782 0.2717286976268563 0  0.6088751792293986 0.2809781842422568 0  0.63120150224453 0.2907884110111529 0  0.6538544124534442 0.3001278568785775 0  0.6748008695824429 0.3086263278331208 0  0.6925225070483735 0.3172050875806147 0  0.7127677633610551 0.3403406249444257 0  0.718744022644804 0.3594061915364901 0  0.7237272627337316 0.3816652812205554 0  0.7286329299502432 0.4057749221725697 0  0.7336524481893894 0.4302520507901952 0  0.738087708996453 0.4541651697034729 0  0.7411158894758375 0.4774410523756143 0  0.7422906325417817 0.5004596444365317 0  0.7413559900441735 0.5235327751465481 0  0.7381723946088072 0.5467646411343661 0  0.7335241352795292 0.5705907853052437 0  0.728395640956002 0.5949712790409527 0  0.7236298374410498 0.6188078359609098 0  0.7187164973436897 0.6408547425573133 0  0.7127340736978972 0.6598093919803855 0  0.6924946663085049 0.6828240098981412 0  0.6747422614355177 0.6913229193605875 0  0.6537133430241832 0.6998259359327539 0  0.6310764833343605 0.7091570104788276 0  0.608808038257687 0.7190792461277289 0  0.5874993730708236 0.7285611761109025 0  0.5662131432198892 0.7365241160627113 0  0.5448612078406158 0.7429315505026807 0  0.5226096619438841 0.7469804201718827 0  0.4999207820025827 0.748359095256509 0  0.4772694235218958 0.747000062977028 0  0.4551171605672594 0.7430280643449103 0  0.4335367072544981 0.7368531782977625 0  0.4124578191317118 0.7286069244503598 0  0.391122980004338 0.7190291170007234 0  0.3685172924423634 0.7089635633687863 0  0.3458854160240132 0.6996383418173866 0  0.3250078034499904 0.6912430635545863 0  0.3073013515784718 0.6827500064811624 0  0.378799891919063 0.3117658814936578 0  0.285398063821551 0.4409839948649746 0  0.3788142636718387 0.6888963443825273 0  0.2848584534361086 0.5595843262607035 0  0.7127247169043016 0.5833031764819477 0  0.5990164773160978 0.6973431866943277 0  0.6200935424011659 0.3103522047161829 0  0.7165923138604877 0.4403259573182145 0  0.7207777734572669 0.5116143466584353 0  0.5550549003178626 0.2899426055439243 0  0.4449121825117012 0.2929874853703182 0  0.4437516021543995 0.7082160420400602 0  0.5337358325089122 0.7128379115969453 0  0.2805589756898261 0.4885844744376757 0  0.2920042051440669 0.3926817721606393 0  0.4886501049213283 0.2903655610612069 0  0.2963561577666871 0.6061774818852185 0  0.7032769700233921 0.3904249827651374 0  0.4887164734433551 0.7148952132137473 0  0.6430937504379626 0.6820067493625491 0  0.3352767616323264 0.3280145864759915 0  0.6651479814554132 0.3287524644033116 0  0.3356305993930112 0.674870968930756 0  0.701719009021899 0.6322710067582087 0  0.3015963416412988 0.3487374626724319 0  0.3031137872142713 0.6507343001469142 0  0.6839695428128605 0.6687605809834666 0  0.6993342873205272 0.3478571401766554 0  0.35678711446742 0.6816230095883766 0  0.3668274398500035 0.6624885209303601 0  0.3883871260796612 0.6673864285928152 0  0.3753435856065353 0.6412553621203052 0  0.3978945083667659 0.6437882959850336 0  0.3837558611214774 0.6157144859322504 0  0.4117051873896423 0.6160727448902011 0  0.3944509525178006 0.5851468353692559 0  0.357015603064581 0.6130283541582593 0  0.4292475516124715 0.5851899111641659 0  0.4073168371357571 0.5495292250404661 0  0.3676228854958567 0.5547275849565482 0  0.3834449083272689 0.5148216164941747 0  0.3463591586411689 0.5168414043706657 0  0.3592964365673442 0.4815221878807882 0  0.3985836670623186 0.4759197477730006 0  0.378495776446893 0.4426518848759289 0  0.415137180679657 0.4370011799391012 0  0.3959282202140246 0.4061379730820164 0  0.4298763755512444 0.3956442033136478 0  0.362004793569432 0.4076170765795959 0  0.4058889224262366 0.3729799939140067 0  0.4392905426995604 0.6168241843692918 0  0.4650781905391493 0.5918945920926397 0  0.4837849945099982 0.6157456538547021 0  0.5022222323855687 0.5930200554823742 0  0.5197965236524626 0.6161360830510111 0  0.5384767810960995 0.5938553875079794 0  0.5556644154764276 0.6182457562797696 0  0.5747403807951891 0.5957049481036064 0  0.5919598633114207 0.6237653155440688 0  0.6105892758961926 0.5906548818584296 0  0.595995499
[...]
<PointData  Scalars="state"> 
<DataArray  type="Float64"  Name="state"  format="ascii">0.0000000000000000e+00  0.0000000000000000e+00  0.0000000000000000e+00  0.0000000000000000e+00  0.0000000000000000e+00  0.0000000000000000e+00  0.0000000000000000e+00  0.0000000000000000e+00  -2.0398852025704128e-02  -2.0488659323361112e-02  -2.0551531616551145e-02  -2.0459452987766497e-02  1.3496994837948517e+00  0.0000000000000000e+00  0.0000000000000000e+00  0.0000000000000000e+00  0.0000000000000000e+00  0.0000000000000000e+00  0.0000000000000000e+00  0.0000000000000000e+00  0.0000000000000000e+00  0.0000000000000000e+00  0.0000000000000000e+00  0.0000000000000000e+00  0.0000000000000000e+00  0.0000000000000000e+00  0.0000000000000000e+00  0.0000000000000000e+00  0.0000000000000000e+00  0.0000000000000000e+00  0.0000000000000000e+00  0.0000000000000000e+00  0.0000000000000000e+00  0.0000000000000000e+00  0.0000000000000000e+00  0.0000000000000000e+00  0.0000000000000000e+00  0.0000000000000000e+00  0.0000000000000000e+00  0.0000000000000000e+00  0.0000000000000000e+00  0.0000000000000000e+00  0.0000000000000000e+00  0.0000000000000000e+00  0.0000000000000000e+00  0.0000000000000000e+00  0.0000000000000000e+00  0.0000000000000000e+00  0.0000000000000000e+00  0.0000000000000000e+00  0.0000000000000000e+00  0.0000000000000000e+00  0.0000000000000000e+00  0.0000000000000000e+00  0.0000000000000000e+00  0.0000000000000000e+00  0.0000000000000000e+00  0.0000000000000000e+00  0.0000000000000000e+00  0.0000000000000000e+00  0.0000000000000000e+00  0.0000000000000000e+00  0.0000000000000000e+00  0.0000000000000000e+00  0.0000000000000000e+00  0.0000000000000000e+00  0.0000000000000000e+00  0.0000000000000000e+00  0.0000000000000000e+00  0.0000000000000000e+00  0.0000000000000000e+00  0.0000000000000000e+00  0.0000000000000000e+00  0.0000000000000000e+00  0.0000000000000000e+00  0.0000000000000000e+00  0.0000000000000000e+00  0.0000000000000000e+00  0.0000000000000000e+00  0.0000000000000000e+00  0.0000000000000000e+00  0.0000000000000000e+00  0.0000000000000000e+00  0.0000000000000000e+00  0.0000000000000000e+00  0.0000000000000000e+00  0.0000000000000000e+00  0.0000000000000000e+00  0.0000000000000000e+00  0.0000000000000000e+00  0.0000000000000000e+00  0.0000000000000000e+00  0.0000000000000000e+00  0.0000000000000000e+00  0.0000000000000000e+00  0.0000000000000000e+00  0.0000000000000000e+00  0.0000000000000000e+00  0.0000000000000000e+00  0.0000000000000000e+00  0.0000000000000000e+00  0.0000000000000000e+00  0.0000000000000000e+00  0.0000000000000000e+00  0.0000000000000000e+00  0.0000000000000000e+00  0.0000000000000000e+00  0.0000000000000000e+00  0.0000000000000000e+00  0.0000000000000000e+00  0.0000000000000000e+00  0.0000000000000000e+00  0.0000000000000000e+00  0.0000000000000000e+00  0.0000000000000000e+00  0.0000000000000000e+00  0.0000000000000000e+00  0.0000000000000000e+00  0.0000000000000000e+00  0.0000000000000000e+00  0.0000000000000000e+00  0.0000000000000000e+00  0.0000000000000000e+00  0.0000000000000000e+00  0.0000000000000000e+00  0.0000000000000000e+00  0.0000000000000000e+00  0.0000000000000000e+00  0.0000000000000000e+00  0.0000000000000000e+00  0.0000000000000000e+00  0.0000000000000000e+00  0.0000000000000000e+00  0.0000000000000000e+00  0.0000000000000000e+00  0.0000000000000000e+00  0.0000000000000000e+00  0.0000000000000000e+00  0.0000000000000000e+00  0.0000000000000000e+00  0.0000000000000000e+00  0.0000000000000000e+00  0.0000000000000000e+00  0.0000000000000000e+00  0.0000000000000000e+00  0.0000000000000000e+00  0.0000000000000000e+00  0.0000000000000000e+00  0.0000000000000000e+00  0.0000000000000000e+00  0.0000000000000000e+00  0.0000000000000000e+00  0.0000000000000000e+00  0.0000000000000000e+00  0.0000000000000000e+00  0.0000000000000000e+00  0.0000000000000000e+00  0.0000000000000000e+00  0.0000000000000000e+00  0.0000000000000000e+00  0.0000000000000000e+00  0.0000000000000000e+00  0.0000000000000000e+00  0.0000000000000000e+00  0.0000000000000000e+00  0.0000000000000000e+00  0.0000000000000000e+00  0.0000000000000000e+00  0.0000000000000000e+00  0.0000000000000000e+00  0.0000000000000000e+00  0.0000000000000000e+00  0.0000000000000000e+00  0.0000000000000000e+00  0.0000000000000000e+00  0.0000000000000000e+00  0.0000000000000000e+00  0.0000000000000000e+00  0.0000000000000000e+00  0.0000000000000000e+00  0.0000000000000000e+00  -1.7723176021626777e-02  -1.5421194960723828e-02  -1.1540407023314683e-02  -8.5892105428648866e-03  -6.9489574257958061e-03  -6.3896056616197577e-03  -6.0587109509471241e-03  -6.6837534887414299e-03  -5.3394007985171381e-03  -5.7300027461877128e-03  -7.2021914964589115e-03  -9.0795309437161267e-03  -1.1278663482635027e-02  -1.4796280218989802e-02  -1.7485139299217533e-02  -1.7946991681217224e-02  -1.4761543901666448e-02  -1.0915882758247245e-02  -7.6490140743667150e-03  -6.6715140540074790e-03  -5.4497041214813862e-03  -5.5609642620434935e-03  -6.3849249143099933e-03  -5.6416875003450218e-03  -6.3223127662467432e-03  -6.3427827168893664e-03  -5.8178118500188634e-03  -6.6149958057250702e-03  -5.0737960258653647e-03  -7.2676079432545046e-03  -8.6969342332448921e-03  -1.1195045763938241e-02  -1.4640139451879012e-02  -1.7897705653968018e-02  -1.8013787270622521e-02  -1.5146379778715734e-02  -1.1518288379600582e-02  -8.3147603474914046e-03  -6.9046409633292437e-03  -6.4362173080928465e-03  -6.4051326913784554e-03  -5.8486442990287758e-03  -5.3419382293269741e-03  -5.8116785146214702e-03  -6.2899233250925425e-03  -7.6741729671445276e-03  -1.1486628155020122e-02  -1.4983721053349178e-02  -1.7885818339537674e-02  -1.7718297146341010e-02  -1.4759798406472419e-02  -1.1547903304750596e-02  -8.6842621120679885e-03  -7.1848169504864492e-03  -5.3968443941418334e-03  -6.8197576141686492e-03  -5.4820964083525580e-03  -5.7494147026629560e-03  -6.0047614632293559e-03  -6.0586637971573746e-03  -6.2110634712914271e-03  -5.1030786313514057e-03  -5.8716956752517353e-03  -6.8288614353484503e-03  -7.6655315681081401e-03  -1.0841956049622856e-02  -1.4765315653708718e-02  -1.7835956529580376e-02  5.8496808118824552e-02  5.6441316718283001e-02  5.9029422921354019e-02  5.5676568545417020e-02  5.2444790374673346e-02  6.2267930710570116e-02  5.8465831313085012e-02  5.4338134984091437e-02  5.3203462510917787e-02  6.3196937451756321e-02  6.7652426922573797e-02  6.7051018480475108e-02  6.4934791027953284e-02  5.5194811696991274e-02  4.4434754700390190e-02  7.4947331220435384e-02  5.0620058462883873e-02  4.8947022525527815e-02  6.7636485008391811e-02  4.8747689450305186e-02  3.9187853589970546e-02  4.0674640336619459e-02  3.7741940523253463e-02  3.7177342433628267e-02  2.4872311839096418e-02  2.7803760709828228e-02  2.5836290741768811e-02  2.5337394844255859e-02  4.8834383522531118e-02  8.5427382433775456e-02  1.1297724241667174e-01  1.8992397600843963e-01  2.7049986066702680e-01  5.4797752650304532e-01  7.2636535301514216e-01  7.8621765199602378e-01  2.5814165703078962e-01  9.4789048488871708e-01  9.8346490517697660e-01  7.3820746175496876e-01  9.1689237063809526e-01  5.0992399764823559e-01  7.2988223521288487e-01  9.8062955814407327e-01  8.1216163757256365e-01  9.7114041774365778e-01  7.7329178138453136e-01  8.6328240094351205e-01  4.9717701328161762e-01  5.4811835056258329e-01  8.3876107513282527e-01  1.0277676478210238e+00  9.0306880154891256e-01  1.0662509783359500e+00  8.7987644592338254e-01  1.0117292544452741e+00  8.3332275222896368e-01  8.7932426026957777e-01  6.2031900988842714e-01  7.7653893199095048e-01  9.3657569594406498e-01  7.4762645573317654e-01  9.2197352557066714e-01  4.2241299682834071e-01  2.5464398205288613e-01  2.9183679108564220e-01  4.2151633786121628e-01  2.4181490413439027e-01  1.4361045602665615e-01  6.3320279815153635e-01  9.1316866145198150e-01  1.3003206640112455e-01  2.0285187654101361e-01  5.3364165117445250e-01  3.8850747501820970e-01  6.4804954016304106e-01  9.5510619597805224e-01  5.9780706757575452e-01  9.0194456026472525e-01  1.1176803323078712e+00  9.5024728495124722e-01  7.7642549592016241e-01  7.7668454656226993e-01  1.0041665503203754e+00  7.7395488863979833e-01  5.4177274179217028e-01  4.2727783442020806e-01  5.9528257968361575e-01  1.8719647546866688e-01  1.4849565682736554e-01  9.7039862510199790e-02  1.0291430098208112e-01  1.1365178877904556e+00  1.3583069613777671e-01  1.5363102361018127e-01  1.1207359388780240e-01  1.4454344219518439e-01  8.6232083391273737e-02  8.3926607591653615e-02  1.2106353419485155e-01  5.0008147391499547e-01  1.3446486291612700e-01  7.8218789054162977e-02  1.8869405836527670e-01  3.2730174713613253e-01  1.7185017353932081e-01  1.5994393056824821e-01  2.3889380166617100e-01  1.2920293432733715e-01  1.0195114899467349e-01  8.6302902767093556e-02  1.3046722611774178e-01  9.3302711785781381e-02  1.4475929658538944e-01  6.8647931592951253e-02  3.0274497336340955e-01  1.2219414196031095e+00  8.2582604285637615e-02  1.2027631862990951e+00  5.4675615479390305e-01  1.5218044750019569e-01  4.3641817962493584e-01  1.6486318249727791e-01  8.9884452866047015e-02  7.9810612829385189e-02  1.4242706725953405e-01  4.4587242013763423e-01  1.9821919431847435e-01  1.0518697060505727e-01  1.0108211213625640e+00  5.7928030810505550e-02  4.7970973162373858e-02  3.8202828572695485e-01  1.5583942973178697e-01  1.7595409539832152e-01  3.0563465308029769e-01  1.9313573426082037e-01  1.0583364446683942e-01  1.5718787027489892e-01  1.0009917125468450e-01  7.8200264670486339e-02  6.0781772530452062e-02  3.6320735786976664e-02  4.9562698563860905e-02  8.9142947260448094e-02  6.3587804806824272e-02  6.4694864917144185e-02  6.3198269634768781e-02  3.3847919050307956e-02  3.5741584859712502e-02  6.6790062459336191e-02  1.3721219941526591e-01  3.7873743788882219e-01  4.9604347113119771e-02  6.3930099470438748e-02  7.2104752006785885e-02  4.9303466514440578e-02  7.5596790751128531e-02  6.8700254202679972e-02  6.0820442146105852e-02  3.7615015107458329e-02  5.4711711417934336e-02  6.3462513421118860e-02  5.3933870452073741e-02  8.0362922243055801e-02  6.4870244290054904e-02  1.1856820498862576e-01  6.5494849011515463e-02  5.7165209650765207e-02  3.7953252984611864e-02  3.4772987372761896e-02  7.8272305943941189e-02  2.1637231459135658e-01  5.9790178979926452e-02  6.3170113044883458e-02  8.5808070998469613e-02  2.5334993664231694e-02  2.5808903129798718e-02  2.4787326771133395e-02  2.6101336607676155e-02  5.6264969536008798e-02  1.1059993528371697e+00  1.2687873094391999e+00  9.6839220237170121e-02  5.4579373163174620e-02  5.0785005158818460e-02  5.2207810954136444e-02  3.6056555999632346e-02  6.2949793002693363e-02  8.1787842217923498e-02  1.7098909147896774e-01  2.1408321556413254e-01  6.5668215131783572e-02  1.7625966834079448e-01  1.1486361441389854e+00  1.1811335518999109e+00  8.3953833373017628e-01  1.2660757836489689e-01  8.1761702031783873e-02  1.4787746634795193e-01  1.2459392478010492e-01  1.5050583839003037e-01  5.3435291339804299e-02  5.1986725728216811e-02  1.1480285783129160e+00  4.8185600548280985e-02  1.3420044877001136e-01  1.1714625417378662e-01  5.0976548197392846e-01  6.8465329352790455e-02  4.6138373410045880e-01  8.6532702934896022e-01  5.1644851612005320e-02  1.2919586345075962e+00  6.1926756118279791e-01  2.9044337727706034e-02  3.8804839639419181e-01  1.3288713468097593e-01  1.2198608379700905e-01  1.1389611105113593e+00  5.3909529283249588e-02  1.0211562105129776e-01  1.3533952396832039e-01  1.3054359830646169e+00  8.6669543945213631e-02  1.7169086534052955e-01  1.2716673083701502e+00  2.9938295820999811e-01  1.5044319689493946e-01  1.2995801824141411e+00  5.5568072072090513e-01  7.7026942735366824e-02  9.1047233271892181e-02  2.2644914448776632e-01  7.1237532029042960e-01  1.2824852936294537e-01  4.5888869834740720e-02  4.2138191226823329e-01  2.6045329692525834e-02  2.6291205679823258e-02  2.5430990726205468e-02  2.6389486423216455e-02  8.8280977368892510e-02  5.3268483541323804e-02  7.2845366964141456e-02  5.8043660978082549e-02  1.2491400749371873e-01  6.9733890817828204e-01  6.2780428259067045e-02  7.6184321399561328e-02  2.2501359900924955e-01  8.2771643055574995e-01  6.6267419506041980e-01  8.5156773067020697e-01  7.1299055121124832e-02  8.2869746121862475e-01  1.3939319526375177e-01  6.9212316831852261e-01  1.3000827028926556e+00  1.4315186278703074e-01  5.3996134326163969e-01  2.5732666937929949e-01  1.3260236651270985e-01  3.5726835040040222e-01  8.0882501785885785e-01  1.1805640170715463e+00  3.7114718471058850e-02  -1.6970007406414970e-02  -1.6808496777340511e-02  -1.8201713201185101e-02  -2.1681550910058661e-02  -1.8203230139352756e-02  -2.2016568420274833e-02  -1.7002177846492435e-02  -1.7910280174304141e-02  -1.7103205601708790e-02  -1.8127558006644930e-02  -2.1844277433945278e-02  -2.1835981038818564e-02  -1.3781149519036759e-02  -1.3177056046592698e-02  -1.4357118975247392e-02  -1.3465266753624354e-02  -1.7112777196008087e-02  -2.1560172164343729e-02  -2.1584773651983316e-02  -1.6952254064320025e-02  -2.4561989861330687e-02  -2.6151944126346943e-02  -1.7491215322245981e-02  -1.7582824071652899e-02  -2.3239612154098980e-02  -2.6100218191375403e-02  -2.6845917764605036e-02  -2.6818368691296657e-02  -2.7327061811329351e-02  -2.7330024722274877e-02  -1.4819784831987154e-02  -1.4477501323500227e-02  -1.4803609366834957e-02  -1.4443590077706417e-02  -1.4546098322033831e-02  -1.4470311031955837e-02  -1.4609236865063947e-02  -2.7301986814989715e-02  -2.7376033582549589e-02  -2.6705817900865222e-02  -2.6021452873906677e-02  -1.5369177301524756e-02  -1.5043004456172578e-02  -1.4922030115739891e-02  -1.4772407674159497e-02  -1.5064812852572051e-02  -1.4784228473696665e-02  -1.5788770198453195e-02  -1.4347350201988185e-02  -2.6088810294032472e-02  -2.5569273333699155e-02  -1.4767420208550311e-02  -1.4392659600408563e-02  -1.4796920108409517e-02  -2.4749203708353266e-02  -2.6190305457705801e-02  -2.6486882342552930e-02  -2.7077177154854165e-02  -2.7272410172741301e-02  -2.7470133196692184e-02  -2.7239882941489640e-02  -2.7353770665776538e-02  -2.7244665199940347e-02  -2.6900713758604554e-02  -2.4612168122098505e-02  -2.6158962092982223e-02  -2.6374255891439144e-02  -2.6969875930026109e-02  -2.6595014131555319e-02  -2.7152888877788498e-02  -2.7361871504339663e-02  -2.7250762953617370e-02  -2.7125592635231951e-02  -2.6814079317847458e-02  -1.9568079251959837e-02  -2.4589220847435929e-02  -2.6187190390370065e-02  -2.6133041164956371e-02  -2.6890076000285278e-02  -2.6854344480552114e-02  -2.7356347709526212e-02  -2.7378509132939013e-02  -2.7349938496517387e-02  -2.7356107172046160e-02  -1.6220322740196864e-02  -1.6867805503535099e-02  -1.8682412103797012e-02  -1.8636075673884086e-02  -2.7091867617820148e-02  -2.6586860703473467e-02  -2.6504963048153179e-02  -2.6630404451260935e-02  -2.6725788690490145e-02  -2.6770222846013072e-02  -1.4395065328569065e-02  -2.6374356607498522e-02  -2.7109438493099131e-02  -2.6561286690179930e-02  -2.6325322802479668e-02  -2.6912529863152373e-02  -2.7005488074902467e-02  -1.9414340515441983e-02  -2.4959543118511104e-02  -2.5138092533135706e-02  -1.2418742510940304e-02  -1.2121190370155219e-02  -1.2354469563215471e-02  -2.4947718219022978e-02  -2.5019686828912396e-02  -2.4442094485797296e-02  -2.4125630929402914e-02  -2.5602248653922514e-02  -2.6258402499160331e-02  -2.5496605019039813e-02  -2.6104193946881432e-02  -2.4810203570255110e-02  -2.5932639873176771e-02  -2.4379826499596875e-02  -2.5124394644369798e-02  -2.3785121033864199e-02  -2.4058494711146367e-02  -2.4985274424696495e-02  -2.6012044551738320e-02  -2.4474655569216970e-02  -2.5093580619973029e-02  -2.3839454116916195e-02  -2.4179842856722797e-02  -2.3193440077952505e-02  -2.3424883676982179e-02  -2.2675682650805815e-02  -2.2934903003837073e-02  -2.2326748669666982e-02  -2.2729635825720761e-02  -2.2212416590308849e-02  -2.2814202084532116e-02  -2.3083756630898188e-02  -2.3289643001998914e-02  -2.2542741303009279e-02  -2.2796477779264197e-02  -2.2185766514810603e-02  -2.2588146163530606e-02  -2.2061858240922775e-02  -2.2675578842228386e-02  -2.4793144019344494e-02  -2.4804537386252452e-02  -2.6632000460663965e-02  -2.6531490545198044e-02  -2.4733501478702305e-02  -2.4571436987219256e-02  -2.2406333793810414e-02  -2.3198551993483550e-02  -2.2730095715704057e-02  -2.3810752438807172e-02  -2.3135684595206242e-02  -2.2259004647089606e-02  -2.3056617794808217e-02  -2.2580310278918162e-02  -2.3676372241118373e-02  -2.3002770058442507e-02  -2.6855174033511599e-02  -2.5441760259081701e-02  -2.5094494893217172e-02  -2.3238718369701941e-02  -2.3919109296828792e-02  -2.3352207652299093e-02  -2.4019575734897120e-02  -2.2420638655212065e-02  -2.2719671236715689e-02  -2.2563771030437028e-02  -2.2902753913338531e-02  -2.2781934933865832e-02  -2.0709198366552311e-02  -2.2898175830696251e-02  -2.4180666885746993e-02  -2.3137446345922217e-02  -2.2330836395957312e-02  -2.0558328651125307e-02  -2.4222217221564840e-02  -2.2801647940365582e-02  -2.4063300589057719e-02  -2.2085872665723948e-02  -2.4205476047320956e-02  -2.2106576649912810e-02  -2.2016994453060611e-02  -2.1758405041228671e-02  -2.3817338275531633e-02  -2.1624649530183303e-02  -2.3743703931052112e-02  -1.8687949581815015e-02  -2.6264359479058721e-02  -9.6338881320243968e-03  -2.5070201374315794e-02  -2.6374825433581401e-02  -2.1549260033998624e-02  -2.1492313256737120e-02  -2.3023570338462782e-02  -2.1654052281137180e-02  -2.5578884505636633e-02  -2.5432231645929799e-02  -2.5145719713074766e-02  -2.6057945061526266e-02  -2.5276922710010280e-02  -2.5631191910755528e-02  -2.4869463179721600e-02  -2.4291641442213512e-02  -2.3801861175169581e-02  -2.5123101265571813e-02  -2.3907417308210159e-02  -2.3216982895454832e-02  -2.2982526967854255e-02  -2.2655555935320638e-02  -2.2434823928928958e-02  -2.2362831589382917e-02  -2.2154166173474241e-02  -2.3212588056379324e-02  -2.3048147111847085e-02  -2.1698413617923917e-02  -2.3737910528187516e-02  -2.3384074979646837e-02  -2.2705231753889117e-02  -1.9078344718461655e-02  -2.2353872976506366e-02  -2.1817771442602496e-02  -2.2180508207817924e-02  -2.1506706766826873e-02  -9.1637181851248820e-03  -9.9332135124662151e-03  -9.4570269775842621e-03  -2.5821862454525363e-02  -2.3843419681988106e-02  -2.6446305941431065e-02  -2.4342261681963732e-02  -2.5575207522679482e-02  -1.9282382586321541e-02  -1.9986413984937758e-02  -2.0175204567221716e-02  -2.3195967887858469e-02  -2.4423678348097926e-02  -2.5255297097648999e-02  -2.4331984011869319e-02  -2.3163435752750275e-02  -2.3365755901868252e-02  -2.3395854069756347e-02  -2.2786439518395912e-02  -2.2675931535148294e-02  -2.2499962367929564e-02  -2.1816398984543770e-02  -2.2324032404495785e-02  -2.2066064090991166e-02  -2.2297593495424484e-02  -2.2253975092560861e-02  -2.2744057906241014e-02  -2.2231426896248272e-02  -2.3291902482520697e-02  -2.3070599973691493e-02  -2.3952097658503389e-02  -2.3622671612034542e-02  -2.4881915427444303e-02  -2.3698784947739512e-02  -2.5512198814814171e-02  -2.3220690566208260e-02  -2.5015655144350786e-02  -2.2680799132205200e-02  -2.3692974831078014e-02  -2.2053389443098509e-02  -2.5653761971139350e-02  -2.5164750651413728e-02  -2.1618870135164930e-02  -2.0223527236254746e-02  -2.2754812130657477e-02  -2.2140304387019392e-02  -2.5680825383350158e-02  -2.1915805034536624e-02  -2.4832969152057519e-02  -2.1197631773650506e-02  -2.0729654048674492e-02  -2.2779607966763708e-02  -2.5632114480399367e-02  -2.0729574881987640e-02  -2.4024419086866519e-02  -2.1462109990020104e-02  -2.0778493941480337e-02  -2.1101264349140034e-02  -2.0827978993196366e-02  -2.3409513280914684e-02  -2.1890223326449548e-02  -2.2347240824978125e-02  -2.1715122922300052e-02  -2.3239858595917828e-02  -2.3995397271791469e-02  -2.0585602261273570e-02  -2.1357858020319816e-02  -1.7256447011123052e-02  -2.1104054478484232e-02  -2.2209627676278883e-02  -2.4657737918225831e-02  -2.2451148066957322e-02  -2.1422957375104169e-02  -1.7210