<?xml version="1.0"?>
<VTKFile type="UnstructuredGrid"  version="0.1"  >
<UnstructuredGrid>
<Piece  NumberOfPoints="1297" NumberOfCells="2496">
<Points>
<DataArray  type="Float64"  NumberOfComponents="3"  format="ascii">0 0 0  0 1 0  1 1 0  1 0 0  1.1 -0.1 0  -0.1 -0.1 0  1.1 1.1 0  -0.1 1.1 0  0.3033527567968297 0.6659439143700941 0  0.3039812250656567 0.3345633893526803 0  0.6963648770422235 0.3340102129104538 0  0.6963585933279524 0.666016192313662 0  0.5000896112840515 0.5001426733000677 0  0 0.9499999999997918 0  0 0.8999999999995836 0  0 0.8499999999996529 0  0 0.7999999999999998 0  0 0.7500000000003466 0  0 0.7000000000006934 0  0 0.6500000000010401 0  0 0.6000000000013869 0  0 0.5500000000017335 0  0 0.5000000000020587 0  0 0.4500000000018723 0  0 0.4000000000016644 0  0 0.3500000000014564 0  0 0.3000000000012483 0  0 0.2500000000010403 0  0 0.2000000000008322 0  0 0.1500000000006241 0  0 0.100000000000416 0  0 0.05000000000020799 0  0.04999999999989965 0 0  0.09999999999981467 0 0  0.1499999999997036 0 0  0.1999999999995579 0 0  0.2499999999994121 0 0  0.2999999999992664 0 0  0.3499999999991206 0 0  0.3999999999989749 0 0  0.4499999999988292 0 0  0.4999999999986943 0 0  0.5499999999988151 0 0  0.5999999999989468 0 0  0.6499999999990784 0 0  0.69999999999921 0 0  0.7499999999993417 0 0  0.7999999999994734 0 0  0.8499999999996051 0 0  0.8999999999997368 0 0  0.9499999999998684 0 0  1 0.04999999999989965 0  1 0.09999999999981467 0  1 0.1499999999997036 0  1 0.1999999999995579 0  1 0.2499999999994121 0  1 0.2999999999992664 0  1 0.3499999999991206 0  1 0.3999999999989749 0  1 0.4499999999988292 0  1 0.4999999999986943 0  1 0.5499999999988151 0  1 0.5999999999989468 0  1 0.6499999999990784 0  1 0.69999999999921 0  1 0.7499999999993417 0  1 0.7999999999994734 0  1 0.8499999999996051 0  1 0.8999999999997368 0  1 0.9499999999998684 0  0.9499999999997918 1 0  0.8999999999995836 1 0  0.8499999999996529 1 0  0.7999999999999998 1 0  0.7500000000003466 1 0  0.7000000000006934 1 0  0.6500000000010401 1 0  0.6000000000013869 1 0  0.5500000000017335 1 0  0.5000000000020587 1 0  0.4500000000018723 1 0  0.4000000000016644 1 0  0.3500000000014564 1 0  0.3000000000012483 1 0  0.2500000000010403 1 0  0.2000000000008322 1 0  0.1500000000006241 1 0  0.100000000000416 1 0  0.05000000000020799 1 0  -0.1 1.05000000000004 0  -0.1 1.000000000000079 0  -0.1 0.9500000000001624 0  -0.1 0.9000000000003032 0  -0.1 0.850000000000444 0  -0.1 0.8000000000005848 0  -0.1 0.7500000000007256 0  -0.1 0.7000000000008665 0  -0.1 0.6500000000010508 0  -0.1 0.6000000000012352 0  -0.1 0.5500000000014196 0  -0.1 0.500000000001539 0  -0.1 0.4500000000014195 0  -0.1 0.4000000000013 0  -0.1 0.3500000000011588 0  -0.1 0.3000000000010178 0  -0.1 0.2500000000008986 0  -0.1 0.2000000000007579 0  -0.1 0.1500000000006174 0  -0.1 0.1000000000005272 0  -0.1 0.05000000000040083 0  -0.1 2.671196597248127e-13 0  -0.1 -0.0499999999998666 0  -0.0500000000000906 -0.1 0  -1.730560139634463e-13 -0.1 0  0.04999999999975802 -0.1 0  0.09999999999961506 -0.1 0  0.1499999999994613 -0.1 0  0.199999999999302 -0.1 0  0.2499999999991446 -0.1 0  0.2999999999990088 -0.1 0  0.3499999999988296 -0.1 0  0.3999999999986936 -0.1 0  0.4499999999985143 -0.1 0  0.4999999999984002 -0.1 0  0.5499999999985247 -0.1 0  0.5999999999986493 -0.1 0  0.6499999999987955 -0.1 0  0.6999999999989417 -0.1 0  0.7499999999990659 -0.1 0  0.7999999999992116 -0.1 0  0.8499999999993573 -0.1 0  0.8999999999994526 -0.1 0  0.949999999999584 -0.1 0  0.9999999999997226 -0.1 0  1.049999999999861 -0.1 0  1.1 -0.0500000000000906 0  1.1 -1.730560139634463e-13 0  1.1 0.04999999999975802 0  1.1 0.09999999999961506 0  1.1 0.1499999999994613 0  1.1 0.199999999999302 0  1.1 0.2499999999991446 0  1.1 0.2999999999990088 0  1.1 0.3499999999988296 0  1.1 0.3999999999986936 0  1.1 0.4499999999985143 0  1.1 0.4999999999984002 0  1.1 0.5499999999985247 0  1.1 0.5999999999986493 0  1.1 0.6499999999987955 0  1.1 0.6999999999989417 0  1.1 0.7499999999990659 0  1.1 0.7999999999992116 0  1.1 0.8499999999993573 0  1.1 0.8999999999994526 0  1.1 0.949999999999584 0  1.1 0.9999999999997226 0  1.1 1.049999999999861 0  1.05000000000004 1.1 0  1.000000000000079 1.1 0  0.9500000000001624 1.1 0  0.9000000000003032 1.1 0  0.850000000000444 1.1 0  0.8000000000005848 1.1 0  0.7500000000007256 1.1 0  0.7000000000008665 1.1 0  0.6500000000010508 1.1 0  0.6000000000012352 1.1 0  0.5500000000014196 1.1 0  0.500000000001539 1.1 0  0.4500000000014195 1.1 0  0.4000000000013 1.1 0  0.3500000000011588 1.1 0  0.3000000000010178 1.1 0  0.2500000000008986 1.1 0  0.2000000000007579 1.1 0  0.1500000000006174 1.1 0  0.1000000000005272 1.1 0  0.05000000000040083 1.1 0  2.671196597248127e-13 1.1 0  -0.0499999999998666 1.1 0  0.2948739617201278 0.653401008220277 0  0.2863514765892833 0.6358212402662782 0  0.2783757145264913 0.6150581059386614 0  0.2707992513862246 0.5919548651513197 0  0.2640448303374667 0.5683179421611007 0  0.2588339663532241 0.5452544844758147 0  0.2557722703202862 0.5226851886829449 0  0.2548330727215765 0.5004131987781789 0  0.256046996251285 0.4779914387314509 0  0.2594760488858793 0.4552037991455025 0  0.2648622681464571 0.4319192549658475 0  0.2715927329187202 0.4082716307543484 0  0.2790813372270775 0.3853462892676873 0  0.287062232218029 0.3646288657031116 0  0.2955989200172739 0.3470870877764284 0  0.3151848938068558 0.3243762382191603 0  0.3308240894640066 0.3134159450836985 0  0.3497561147050534 0.3020772855673918 0  0.3705635133720926 0.2904561100570869 0  0.3917707291655683 0.2794555873239835 0  0.4126940947825924 0.2699588326288423 0  0.4337538008471664 0.2623337927166489 0  0.4551710531515333 0.2566845174088993 0  0.4772828428032469 0.2529441335302081 0  0.4998640934433736 0.2514635254380597 0  0.5224271249325941 0.2524690186421622 0  0.5445602078333691 0.2559934271806228 0  0.5657057727084835 0.2618042973814161 0  0.5867294374657274 0.2693372792362076 0  0.6075894850674807 0.2788244974750319 0  0.6289072105678843 0.2897881805752819 0  0.6501170063797167 0.3014110672437036 0  0.6692757217674776 0.3127352191972869 0  0.6850083186676822 0.3237471891823458 0  0.7049359822589218 0.3468619133972662 0  0.7134966560217413 0.3644088849430825 0  0.7215852062218732 0.3853591792045551 0  0.7291847936023045 0.408367404539259 0  0.7359506782756345 0.4319503017550735 0  0.7412668717868653 0.4551854471599511 0  0.7446489140510606 0.4779225626556277 0  0.7459157804933164 0.5004632599132052 0  0.7449132898011078 0.523077848685025 0  0.7414584082340951 0.5458038789877506 0  0.7359868631692478 0.5690015727393359 0  0.7290903176682456 0.5925318268216464 0  0.7215203181779019 0.615221270982935 0  0.7134968183868979 0.6358868182287891 0  0.7049364527838603 0.6532563188782952 0  0.6850121742077062 0.6761993431361951 0  0.6692187420105212 0.6871502356925624 0  0.6499795206549677 0.6985262090866372 0  0.6288101572796606 0.7101865826542481 0  0.60761524011505 0.7213557366155695 0  0.586897989053968 0.7311559675777952 0  0.5659008277801435 0.7389893016128209 0  0.5446603049799915 0.7449774807837103 0  0.5225007169803032 0.7486909562402061 0  0.4999129316664976 0.7499431835329476 0  0.4773685194236261 0.7486845565152386 0  0.4553394839132042 0.7449868030115883 0  0.4339366904951206 0.7390995979468302 0  0.4131399703625735 0.7310784677347645 0  0.3923608684845818 0.7212319191120764 0  0.3706733764299386 0.7099556470283429 0  0.3494068087767899 0.6983004089293873 0  0.3303262350104417 0.6870558757826419 0  0.3146199037745078 0.6761357687774231 0  0.3807240891036076 0.3113606091432424 0  0.283840108009535 0.4423383501829617 0  0.380824327307909 0.6890868021529452 0  0.2833010069838083 0.5580697380019604 0  0.7133016115700819 0.5813411942439697 0  0.5977190685671114 0.6984949971851343 0  0.6180175274340822 0.310084173682307 0  0.7182198696495256 0.4417045020133457 0  0.7233364699167477 0.5114024255817424 0  0.5545199113266405 0.2885042592434678 0  0.4452784080388653 0.2915284034077448 0  0.4442694470774635 0.7096237110641699 0  0.5334680847938328 0.7142369774487063 0  0.2780301079795162 0.4887997804988002 0  0.293534457515115 0.3955781521686601 0  0.4886684601491815 0.2891154922011552 0  0.2977871792149138 0.6032724486343646 0  0.7015162281669051 0.3934065612947369 0  0.4888036971017889 0.7161836527983768 0  0.6399424617619095 0.6807454900425819 0  0.3396972617918888 0.3310554547930621 0  0.6606654149465849 0.331988232755658 0  0.3399180813147731 0.6717316420402915 0  0.697874258585239 0.6282688380311465 0  0.3074558227007809 0.3537827881536546 0  0.3086409320445446 0.645712132131728 0  0.678032520480238 0.6637669162513359 0  0.6933969782304139 0.353083001325123 0  0.3598033447945628 0.6803271907385724 0  0.3691555197170593 0.6614132386306525 0  0.3900288482646326 0.6672413137113608 0  0.3769775256561256 0.6403996576951935 0  0.3990418305831305 0.6435721347194271 0  0.3846680742716156 0.6151301327712394 0  0.4123429580011128 0.6159130235086399 0  0.3948584250802018 0.5847410883995067 0  0.3582856028757983 0.6117169946700675 0  0.4295525406417864 0.5850705194417178 0  0.4074583612628995 0.5492995760765355 0  0.3676931555146812 0.5541777188359749 0  0.3833984130457276 0.5146774723455211 0  0.3460220688090749 0.5165796092569173 0  0.3591000861788683 0.4816855535076989 0  0.3986182948104625 0.4760198159703335 0  0.3786383070068445 0.4430421817374698 0  0.4153507988218644 0.4371571711542612 0  0.3964386735832248 0.4064604867654661 0  0.4302886336154761 0.3956637896165082 0  0.3626693898922259 0.4084794508209899 0  0.4066833802411344 0.3730844741849955 0  0.4397223036537254 0.6168663293456134 0  0.4652524250308663 0.5919240262273859 0  0.4838941172370873 0.615891683932223 0  0.5022011061597983 0.5930934159732151 0  0.5196448920995799 0.6162891419773369 0  0.5382614274788811 0.5938987843975685 0  0.5552432141376028 0.6183340489422859 0  0.5743408555558972 0.5956159515798206 0  0.5911825383238789 0.6236337578739342 0  0.6100890759581692 0.5902366023170821 0  0.59580
[...]
<PointData  Scalars="state"> 
<DataArray  type="Float64"  Name="state"  format="ascii">0.0000000000000000e+00  0.0000000000000000e+00  0.0000000000000000e+00  0.0000000000000000e+00  0.0000000000000000e+00  0.0000000000000000e+00  0.0000000000000000e+00  0.0000000000000000e+00  -1.8763736333397688e-02  -1.8817103634553557e-02  -1.8887258716811382e-02  -1.8801022028137170e-02  1.3472219752262422e+00  0.0000000000000000e+00  0.0000000000000000e+00  0.0000000000000000e+00  0.0000000000000000e+00  0.0000000000000000e+00  0.0000000000000000e+00  0.0000000000000000e+00  0.0000000000000000e+00  0.0000000000000000e+00  0.0000000000000000e+00  0.0000000000000000e+00  0.0000000000000000e+00  0.0000000000000000e+00  0.0000000000000000e+00  0.0000000000000000e+00  0.0000000000000000e+00  0.0000000000000000e+00  0.0000000000000000e+00  0.0000000000000000e+00  0.0000000000000000e+00  0.0000000000000000e+00  0.0000000000000000e+00  0.0000000000000000e+00  0.0000000000000000e+00  0.0000000000000000e+00  0.0000000000000000e+00  0.0000000000000000e+00  0.0000000000000000e+00  0.0000000000000000e+00  0.0000000000000000e+00  0.0000000000000000e+00  0.0000000000000000e+00  0.0000000000000000e+00  0.0000000000000000e+00  0.0000000000000000e+00  0.0000000000000000e+00  0.0000000000000000e+00  0.0000000000000000e+00  0.0000000000000000e+00  0.0000000000000000e+00  0.0000000000000000e+00  0.0000000000000000e+00  0.0000000000000000e+00  0.0000000000000000e+00  0.0000000000000000e+00  0.0000000000000000e+00  0.0000000000000000e+00  0.0000000000000000e+00  0.0000000000000000e+00  0.0000000000000000e+00  0.0000000000000000e+00  0.0000000000000000e+00  0.0000000000000000e+00  0.0000000000000000e+00  0.0000000000000000e+00  0.0000000000000000e+00  0.0000000000000000e+00  0.0000000000000000e+00  0.0000000000000000e+00  0.0000000000000000e+00  0.0000000000000000e+00  0.0000000000000000e+00  0.0000000000000000e+00  0.0000000000000000e+00  0.0000000000000000e+00  0.0000000000000000e+00  0.0000000000000000e+00  0.0000000000000000e+00  0.0000000000000000e+00  0.0000000000000000e+00  0.0000000000000000e+00  0.0000000000000000e+00  0.0000000000000000e+00  0.0000000000000000e+00  0.0000000000000000e+00  0.0000000000000000e+00  0.0000000000000000e+00  0.0000000000000000e+00  0.0000000000000000e+00  0.0000000000000000e+00  0.0000000000000000e+00  0.0000000000000000e+00  0.0000000000000000e+00  0.0000000000000000e+00  0.0000000000000000e+00  0.0000000000000000e+00  0.0000000000000000e+00  0.0000000000000000e+00  0.0000000000000000e+00  0.0000000000000000e+00  0.0000000000000000e+00  0.0000000000000000e+00  0.0000000000000000e+00  0.0000000000000000e+00  0.0000000000000000e+00  0.0000000000000000e+00  0.0000000000000000e+00  0.0000000000000000e+00  0.0000000000000000e+00  0.0000000000000000e+00  0.0000000000000000e+00  0.0000000000000000e+00  0.0000000000000000e+00  0.0000000000000000e+00  0.0000000000000000e+00  0.0000000000000000e+00  0.0000000000000000e+00  0.0000000000000000e+00  0.0000000000000000e+00  0.0000000000000000e+00  0.0000000000000000e+00  0.0000000000000000e+00  0.0000000000000000e+00  0.0000000000000000e+00  0.0000000000000000e+00  0.0000000000000000e+00  0.0000000000000000e+00  0.0000000000000000e+00  0.0000000000000000e+00  0.0000000000000000e+00  0.0000000000000000e+00  0.0000000000000000e+00  0.0000000000000000e+00  0.0000000000000000e+00  0.0000000000000000e+00  0.0000000000000000e+00  0.0000000000000000e+00  0.0000000000000000e+00  0.0000000000000000e+00  0.0000000000000000e+00  0.0000000000000000e+00  0.0000000000000000e+00  0.0000000000000000e+00  0.0000000000000000e+00  0.0000000000000000e+00  0.0000000000000000e+00  0.0000000000000000e+00  0.0000000000000000e+00  0.0000000000000000e+00  0.0000000000000000e+00  0.0000000000000000e+00  0.0000000000000000e+00  0.0000000000000000e+00  0.0000000000000000e+00  0.0000000000000000e+00  0.0000000000000000e+00  0.0000000000000000e+00  0.0000000000000000e+00  0.0000000000000000e+00  0.0000000000000000e+00  0.0000000000000000e+00  0.0000000000000000e+00  0.0000000000000000e+00  0.0000000000000000e+00  0.0000000000000000e+00  0.0000000000000000e+00  0.0000000000000000e+00  0.0000000000000000e+00  0.0000000000000000e+00  0.0000000000000000e+00  0.0000000000000000e+00  0.0000000000000000e+00  0.0000000000000000e+00  0.0000000000000000e+00  0.0000000000000000e+00  0.0000000000000000e+00  0.0000000000000000e+00  0.0000000000000000e+00  -1.6009722760999368e-02  -1.4372600408940176e-02  -1.1357911778466056e-02  -9.5179144116456522e-03  -8.5826182023175813e-03  -8.2280184055288762e-03  -7.9146562177636083e-03  -8.5833484119715118e-03  -7.2120989475102926e-03  -7.6553626331273749e-03  -8.8559362345344630e-03  -9.9936494831759544e-03  -1.1139850858071365e-02  -1.3743502414861721e-02  -1.5577776452965755e-02  -1.6193189400627150e-02  -1.3735556963634744e-02  -1.0937273444005847e-02  -8.8418111406949797e-03  -8.2455804836450378e-03  -6.8571986277170937e-03  -6.6956611039862028e-03  -7.1832406629571775e-03  -6.2427039794971644e-03  -6.8776225326536902e-03  -6.9540959764382466e-03  -6.5985376664929709e-03  -7.7482605426691673e-03  -6.4084274952612048e-03  -8.7844196464018209e-03  -9.7587050433285451e-03  -1.1189508828156104e-02  -1.3586576327982821e-02  -1.6144087926513586e-02  -1.6283686419329726e-02  -1.4082141519511154e-02  -1.1377005844936023e-02  -9.3103917278425635e-03  -8.5787193116642849e-03  -8.2965439758614888e-03  -8.2488426427119246e-03  -7.6215617485140387e-03  -7.1583729151918256e-03  -7.7063376327829117e-03  -8.0577270948300091e-03  -8.7200417462313298e-03  -1.1362094002257756e-02  -1.3948997830422671e-02  -1.6170908608606961e-02  -1.5991879376387602e-02  -1.3684967752989455e-02  -1.1472610318781407e-02  -9.7550303812675328e-03  -8.7724205654685448e-03  -6.8428089058073039e-03  -8.0253635693176093e-03  -6.3378032072791499e-03  -6.3615334981318916e-03  -6.5251115962046743e-03  -6.6747740356812614e-03  -7.0421229338544890e-03  -6.1780422151397835e-03  -7.2267680252321416e-03  -8.3344394983079703e-03  -8.7785480171666125e-03  -1.0836594030433022e-02  -1.3682231203042758e-02  -1.6105849729558468e-02  5.5546900062378314e-02  5.3187901716809760e-02  5.6153698841425320e-02  5.2651085402554171e-02  4.9538037763339406e-02  5.8989317144966802e-02  5.5511513308843623e-02  5.1256802781922593e-02  5.0367709531637959e-02  6.1793560817234777e-02  6.5598955159371614e-02  6.5517723681325413e-02  6.3947096767539832e-02  5.2241593827402885e-02  4.4212671361505203e-02  7.4371753466022247e-02  5.0353057341994641e-02  4.8956045423633208e-02  6.7237054016996284e-02  4.8683899450353126e-02  4.1845719963755051e-02  4.3402838891895612e-02  4.0160980856532309e-02  3.9868728923395512e-02  2.9028339834135237e-02  3.1868362658801601e-02  3.0029373477087132e-02  2.9418754963526476e-02  4.8583421732568001e-02  8.3058340345727191e-02  1.0839560477322893e-01  1.7732847223186704e-01  2.5969600797836540e-01  4.9606633434901831e-01  7.2755512999397276e-01  7.9360050335171373e-01  2.2541563330761916e-01  9.4185177332129399e-01  9.7889663733674825e-01  7.4274069351397087e-01  9.0705570340061137e-01  5.4182081277457128e-01  7.4311917859585963e-01  9.7710515220083072e-01  8.1319916877168763e-01  9.6655104526150049e-01  7.8123711623233139e-01  8.5721873040670926e-01  4.5218899325858619e-01  5.4491395417383159e-01  8.3576889921720854e-01  1.0262343384795016e+00  9.0094704020273264e-01  1.0676835379011715e+00  8.7851108658891308e-01  1.0097432308304308e+00  8.2781040476467416e-01  8.7551265549868196e-01  6.1590540814084982e-01  7.7640650207994455e-01  9.3316507945233151e-01  7.5178031040453563e-01  9.1474973471752252e-01  3.8598679950711612e-01  2.5982749248848630e-01  2.9284697738669369e-01  4.3963850829702894e-01  2.4769764991887935e-01  1.4332119406486368e-01  6.4676758514262822e-01  9.0739347799705494e-01  1.2676030187066201e-01  2.0321498755296902e-01  5.5242049469444332e-01  4.0716980081299942e-01  6.6041685876353173e-01  9.5250200910539173e-01  6.1058353225840323e-01  8.9670727103477132e-01  1.1182004026328050e+00  9.4625893187210142e-01  7.7417237747994694e-01  7.7870742069079701e-01  9.9834696030104808e-01  7.8132304759910021e-01  4.8158054195506145e-01  3.8301786039724323e-01  6.0210685280926135e-01  1.7323681388483453e-01  1.4219574644850375e-01  9.7709329764825228e-02  1.0294603905126752e-01  1.1368463549035386e+00  1.2998130226276586e-01  1.4802380620598934e-01  1.0835292375590769e-01  1.4409239223417916e-01  8.5265692650518088e-02  8.5243041673112988e-02  1.2070566932549645e-01  5.1776020498716890e-01  1.3746725874045293e-01  7.5956827593735232e-02  1.9489572026522042e-01  3.3960041682272557e-01  1.6245504536112004e-01  1.5161276834016704e-01  2.4953376904483057e-01  1.2605706362333108e-01  9.9926271909170222e-02  8.7919582760027717e-02  1.2779890093178811e-01  9.0509516814863855e-02  1.4040247002124515e-01  6.6066143357150053e-02  2.9143848490673036e-01  1.2191054511466801e+00  7.9963411133881515e-02  1.2010033918465675e+00  5.7690674111904128e-01  1.5445430554854081e-01  4.6967087204605040e-01  1.6500091078774051e-01  8.8472156650337919e-02  7.7843139354334109e-02  1.4038743865249723e-01  3.9136196914599147e-01  1.9155461735554610e-01  1.0357623711699432e-01  1.0128327861756465e+00  6.0385616887404014e-02  5.0251648601421506e-02  3.2872807604719001e-01  1.5056459105149397e-01  1.6400020499530107e-01  2.9531086397030704e-01  1.9128199328138176e-01  1.0111674224917996e-01  1.5084880734723471e-01  1.0204216328644905e-01  7.5491840780668590e-02  6.2652568486238167e-02  4.0014897692392720e-02  4.9210100463222321e-02  8.7748535976645489e-02  6.0733217806489777e-02  6.3884393936075368e-02  6.4457235760538995e-02  3.7406593910189787e-02  3.8243801129165887e-02  6.4217422433318710e-02  1.3507478493934000e-01  3.8132415330127190e-01  4.9432881621741871e-02  6.0631791134600030e-02  6.9473609231271202e-02  4.8697208849780710e-02  7.2935058883442483e-02  6.7476032931935936e-02  5.7586320908583691e-02  3.9938351715149388e-02  5.5972427172122738e-02  6.2753841000772914e-02  5.1275544934328274e-02  7.7394145376966234e-02  6.2143199983167738e-02  1.1552961655771983e-01  6.3955477547602946e-02  5.4499262809442686e-02  4.0618531237341451e-02  3.8644499369895426e-02  7.5771708965041165e-02  2.2591206542616174e-01  6.1299721430964613e-02  5.9885653812022835e-02  8.3171477743593986e-02  2.9464040923696786e-02  2.9825052029015992e-02  2.8938723012696201e-02  3.0143958878760601e-02  5.3211120744375930e-02  1.1040926283914412e+00  1.2666258276826343e+00  9.5260954727410932e-02  5.1845884685056139e-02  4.8272630154456812e-02  5.3654302019055189e-02  3.8663215840866898e-02  6.2072323343364821e-02  7.8968213939723225e-02  1.7573214066293461e-01  2.0943693597333110e-01  6.5228335320392655e-02  1.7777515784606146e-01  1.1506750593568098e+00  1.1777269179051069e+00  8.3259957804451457e-01  1.2578479920954486e-01  7.9752702163169500e-02  1.5016207653202521e-01  1.2117314738546450e-01  1.5021526901215920e-01  5.0361989189140713e-02  4.9148582007080305e-02  1.1443341348295748e+00  5.0370349030515987e-02  1.3297133196162655e-01  1.1415513334247465e-01  5.1365338859202925e-01  6.6250964931269016e-02  4.7634453406669081e-01  8.5578217910385723e-01  4.8604236047352499e-02  1.2894208098376438e+00  5.8237841127271284e-01  3.2797072798181490e-02  4.0075037464372198e-01  1.3226389541974468e-01  1.1969943571818080e-01  1.1399701870379801e+00  5.0808587711495497e-02  9.7394160930595219e-02  1.3823923036354926e-01  1.3033319950388531e+00  8.4517671553291457e-02  1.6402340112371513e-01  1.2694769285365812e+00  3.0843222381851748e-01  1.5362288029799040e-01  1.2972908570577029e+00  5.7072977465837627e-01  7.4347756589303177e-02  8.6776573886006514e-02  2.1886490481475657e-01  7.2120715233054078e-01  1.2779039638819323e-01  4.2792629982195539e-02  4.3602515699925465e-01  3.0721985486601152e-02  3.1090872820544190e-02  3.0095863525379154e-02  3.1171155292866546e-02  8.6316798126285635e-02  5.4528429169418836e-02  7.0106718538934437e-02  5.6659720126700092e-02  1.2286639334517083e-01  7.0371340461367371e-01  6.5058432804696087e-02  7.6073763549066378e-02  2.0423670435131250e-01  8.2577492826693644e-01  6.7714680201117827e-01  8.4560763570498276e-01  6.8632512170763896e-02  8.2436725256027110e-01  1.3396440843309423e-01  7.0939481819849326e-01  1.2974965608406330e+00  1.3848848017128751e-01  5.5096621765621767e-01  2.5297558745953141e-01  1.3533721661659673e-01  3.8841428890335933e-01  8.0715186016260199e-01  1.1794932889843244e+00  4.0162124220298127e-02  -1.7644639386594791e-02  -1.7473334749677199e-02  -1.9009020620309323e-02  -2.1745887243559352e-02  -1.9043498697108478e-02  -2.2103199183656219e-02  -1.7698352077711321e-02  -1.8803436928670383e-02  -1.7757596654545401e-02  -1.8971786520049085e-02  -2.1898219652354917e-02  -2.1892423843847236e-02  -1.3853255074635888e-02  -1.3240756922216936e-02  -1.4434740700128958e-02  -1.3533522698385527e-02  -1.8266785592701024e-02  -2.1661208176593096e-02  -2.1691948538860348e-02  -1.8109870996311835e-02  -2.4523838778250831e-02  -2.6348000366938028e-02  -1.8532988530228639e-02  -1.8606213979687501e-02  -2.3149045353140624e-02  -2.6220331114240821e-02  -2.7004926200829067e-02  -2.6906589743364830e-02  -2.7612074983110087e-02  -2.7585159922383962e-02  -1.4920719262604451e-02  -1.4573459332214612e-02  -1.4903267459227558e-02  -1.4542325897083533e-02  -1.4645711365624987e-02  -1.4568960758191071e-02  -1.4709104985597752e-02  -2.7580053773732939e-02  -2.7659565998481888e-02  -2.6985627899506155e-02  -2.6261368453010490e-02  -1.5533245149043196e-02  -1.5179979519556158e-02  -1.5055170500169813e-02  -1.4928514839614004e-02  -1.5229766621101140e-02  -1.4945917856717311e-02  -1.5948217534468741e-02  -1.4441476916829779e-02  -2.6414690914133048e-02  -2.5909282426140292e-02  -1.4866355830722522e-02  -1.4486684116879487e-02  -1.4892433085322688e-02  -2.4683024390000075e-02  -2.6380365416059731e-02  -2.6576189595042619e-02  -2.7217037759644000e-02  -2.7508065589654709e-02  -2.7754844566637401e-02  -2.7501133993076163e-02  -2.7623884839222183e-02  -2.7526854217641502e-02  -2.7165857639698594e-02  -2.4543977878376970e-02  -2.6350538741461378e-02  -2.6470405700248296e-02  -2.7119527038695069e-02  -2.6693501631958851e-02  -2.7391679705512512e-02  -2.7652321620400041e-02  -2.7528657819366011e-02  -2.7413916089385076e-02  -2.7084862797255423e-02  -2.0006384169609624e-02  -2.4566141195439761e-02  -2.6387988987681469e-02  -2.6253358048796450e-02  -2.7054408413916237e-02  -2.6943553732380669e-02  -2.7642026944224182e-02  -2.7635998601827666e-02  -2.7631600932965215e-02  -2.7636541653473557e-02  -1.7498380324748136e-02  -1.8102434580668979e-02  -1.9454426284736086e-02  -1.9437822518001233e-02  -2.7395762482717599e-02  -2.6850914890675665e-02  -2.6776562279078424e-02  -2.6895968823562395e-02  -2.6982105285289555e-02  -2.7040798479513226e-02  -1.4479643950438218e-02  -2.6634538730761121e-02  -2.7396412291044499e-02  -2.6824211799597878e-02  -2.6583051005671043e-02  -2.7192425688079520e-02  -2.7289185039418958e-02  -1.9952525897839829e-02  -2.5199677601599770e-02  -2.5371347641485156e-02  -1.2476466081141231e-02  -1.2176528752105826e-02  -1.2409809324024499e-02  -2.5178902157505428e-02  -2.5260082971080289e-02  -2.4734831056663811e-02  -2.4447036418016311e-02  -2.5853092052696872e-02  -2.6530790464082712e-02  -2.5745788067783541e-02  -2.6376123156519164e-02  -2.5053972005227264e-02  -2.6210543712280175e-02  -2.4625905429235796e-02  -2.5415892132393411e-02  -2.4030924678183092e-02  -2.4351479226290738e-02  -2.5223421971490075e-02  -2.6281055138264529e-02  -2.4714585772949996e-02  -2.5372584467773646e-02  -2.4078289086435185e-02  -2.4465310927613365e-02  -2.3425797872132500e-02  -2.3714417589130496e-02  -2.2899880606753534e-02  -2.3218339758535586e-02  -2.2545154286373444e-02  -2.3005952685032992e-02  -2.2428419953495243e-02  -2.3089670878429312e-02  -2.3321942976556324e-02  -2.3583717666439047e-02  -2.2771503463927846e-02  -2.3083923034407806e-02  -2.2407447525563864e-02  -2.2867573549524969e-02  -2.2279895144808274e-02  -2.2953163353691741e-02  -2.5030014859870556e-02  -2.5050964271960359e-02  -2.6739941814959065e-02  -2.6645135544386252e-02  -2.4968780443548055e-02  -2.4811870548211983e-02  -2.2625779672134781e-02  -2.3475943318791246e-02  -2.2954929964260986e-02  -2.4083766098983696e-02  -2.3365133882620837e-02  -2.2479527064629110e-02  -2.3334583710327275e-02  -2.2805146296474618e-02  -2.3949087281202177e-02  -2.3233486564342081e-02  -2.7138532190606895e-02  -2.5706141140823036e-02  -2.5365596616128257e-02  -2.3623181541044952e-02  -2.4303762831202804e-02  -2.3731406587691736e-02  -2.4399343477835077e-02  -2.2779647642874240e-02  -2.2922682570675618e-02  -2.2913347207167416e-02  -2.3099315996673399e-02  -2.3161274859870233e-02  -2.0873742342083636e-02  -2.3278039574031160e-02  -2.4411587024161310e-02  -2.3345090235733282e-02  -2.2524130504847462e-02  -2.0725354862758723e-02  -2.4454188088670236e-02  -2.3003885566657716e-02  -2.4466715858710211e-02  -2.2273633760521196e-02  -2.4607682835459745e-02  -2.2379340044249969e-02  -2.2274198640097741e-02  -2.2038667957971859e-02  -2.4171187755781618e-02  -2.1812965037832494e-02  -2.3978261453380643e-02  -1.8823680805525472e-02  -2.6544491710054432e-02  -9.6689783688117831e-03  -2.5341238771439852e-02  -2.6650977031224116e-02  -2.1739015705544946e-02  -2.1788414978588303e-02  -2.3393387259951402e-02  -2.1836949549880278e-02  -2.5711916596416251e-02  -2.5564806992362125e-02  -2.5324265206505037e-02  -2.6294155501635632e-02  -2.5544822203558967e-02  -2.5972968040803790e-02  -2.5227781304107029e-02  -2.4606678077257541e-02  -2.4139999278516650e-02  -2.5426065497281488e-02  -2.4332259293654186e-02  -2.3575448395933105e-02  -2.3487950559109069e-02  -2.3035922295411401e-02  -2.2994384093207018e-02  -2.2765203407395289e-02  -2.2753276032329010e-02  -2.3442145562276320e-02  -2.3262525616969825e-02  -2.1884343055583632e-02  -2.3967586236113274e-02  -2.3859859163914587e-02  -2.3246471883023680e-02  -1.9217130150207751e-02  -2.2799381364423596e-02  -2.2001185651729493e-02  -2.2369834976085228e-02  -2.1829240940113626e-02  -9.1954327155696122e-03  -9.9713696163370533e-03  -9.4900439950682917e-03  -2.5992128642197319e-02  -2.3609795955838356e-02  -2.6755793672847666e-02  -2.4614546209637021e-02  -2.5901155716042283e-02  -1.9456402592244695e-02  -2.0142915799704838e-02  -2.0357088277268606e-02  -2.3473948137655808e-02  -2.4741311501085494e-02  -2.5587009330155744e-02  -2.4706703914548215e-02  -2.3480054581458923e-02  -2.3739123076061405e-02  -2.3873074512631674e-02  -2.3310544574211483e-02  -2.3033678775713079e-02  -2.2966038659482806e-02  -2.2155242162513127e-02  -2.2730442548127013e-02  -2.2686619850090715e-02  -2.2850834772826265e-02  -2.2614588070382111e-02  -2.3213744453405932e-02  -2.2564330152332293e-02  -2.3661207692293067e-02  -2.3590977308674765e-02  -2.4354916486238703e-02  -2.3954223833001095e-02  -2.5234668731392573e-02  -2.3995984536419473e-02  -2.5831390113456171e-02  -2.3493462740284920e-02  -2.5292193910862744e-02  -2.3139904195580301e-02  -2.4114118334453594e-02  -2.2504487696491340e-02  -2.5954938311082199e-02  -2.5482392035176864e-02  -2.1913253219472965e-02  -2.0459243156305821e-02  -2.3206978242989611e-02  -2.2583849210254102e-02  -2.5907117901345336e-02  -2.2553298759878611e-02  -2.5174851445538070e-02  -2.1502785916033641e-02  -2.1278824768705528e-02  -2.3313391000570480e-02  -2.5901569996915348e-02  -2.0966323863419165e-02  -2.4275183467635818e-02  -2.2152960737063850e-02  -2.0949120225537660e-02  -2.1278651809649853e-02  -2.1362674023497365e-02  -2.3851852893650730e-02  -2.2112908840402967e-02  -2.2934488159363688e-02  -2.2376105484804655e-02  -2.3717750038116617e-02  -2.4414029341883258e-02  -2.0755139239219313e-02  -2.1539158284762987e-02  -1.7456715524492350e-02  -2.1831680671862592e-02  -2.2797133215694518e-02  -2.4922340435496723e-02  -2.2704864489338065e-02  -2.1609682962697625e-02  -1.7355