<?xml version="1.0"?>
<VTKFile type="UnstructuredGrid"  version="0.1"  >
<UnstructuredGrid>
<Piece  NumberOfPoints="1297" NumberOfCells="2496">
<Points>
<DataArray  type="Float64"  NumberOfComponents="3"  format="ascii">0 0 0  0 1 0  1 1 0  1 0 0  1.1 -0.1 0  -0.1 -0.1 0  1.1 1.1 0  -0.1 1.1 0  0.3099559950367578 0.6601959536414226 0  0.3103168851093388 0.3399761309720266 0  0.6897851643563834 0.3396359442789785 0  0.6898007531051299 0.6602574737845579 0  0.5000864679396683 0.5001214654903989 0  0 0.9499999999997918 0  0 0.8999999999995836 0  0 0.8499999999996529 0  0 0.7999999999999998 0  0 0.7500000000003466 0  0 0.7000000000006934 0  0 0.6500000000010401 0  0 0.6000000000013869 0  0 0.5500000000017335 0  0 0.5000000000020587 0  0 0.4500000000018723 0  0 0.4000000000016644 0  0 0.3500000000014564 0  0 0.3000000000012483 0  0 0.2500000000010403 0  0 0.2000000000008322 0  0 0.1500000000006241 0  0 0.100000000000416 0  0 0.05000000000020799 0  0.04999999999989965 0 0  0.09999999999981467 0 0  0.1499999999997036 0 0  0.1999999999995579 0 0  0.2499999999994121 0 0  0.2999999999992664 0 0  0.3499999999991206 0 0  0.3999999999989749 0 0  0.4499999999988292 0 0  0.4999999999986943 0 0  0.5499999999988151 0 0  0.5999999999989468 0 0  0.6499999999990784 0 0  0.69999999999921 0 0  0.7499999999993417 0 0  0.7999999999994734 0 0  0.8499999999996051 0 0  0.8999999999997368 0 0  0.9499999999998684 0 0  1 0.04999999999989965 0  1 0.09999999999981467 0  1 0.1499999999997036 0  1 0.1999999999995579 0  1 0.2499999999994121 0  1 0.2999999999992664 0  1 0.3499999999991206 0  1 0.3999999999989749 0  1 0.4499999999988292 0  1 0.4999999999986943 0  1 0.5499999999988151 0  1 0.5999999999989468 0  1 0.6499999999990784 0  1 0.69999999999921 0  1 0.7499999999993417 0  1 0.7999999999994734 0  1 0.8499999999996051 0  1 0.8999999999997368 0  1 0.9499999999998684 0  0.9499999999997918 1 0  0.8999999999995836 1 0  0.8499999999996529 1 0  0.7999999999999998 1 0  0.7500000000003466 1 0  0.7000000000006934 1 0  0.6500000000010401 1 0  0.6000000000013869 1 0  0.5500000000017335 1 0  0.5000000000020587 1 0  0.4500000000018723 1 0  0.4000000000016644 1 0  0.3500000000014564 1 0  0.3000000000012483 1 0  0.2500000000010403 1 0  0.2000000000008322 1 0  0.1500000000006241 1 0  0.100000000000416 1 0  0.05000000000020799 1 0  -0.1 1.05000000000004 0  -0.1 1.000000000000079 0  -0.1 0.9500000000001624 0  -0.1 0.9000000000003032 0  -0.1 0.850000000000444 0  -0.1 0.8000000000005848 0  -0.1 0.7500000000007256 0  -0.1 0.7000000000008665 0  -0.1 0.6500000000010508 0  -0.1 0.6000000000012352 0  -0.1 0.5500000000014196 0  -0.1 0.500000000001539 0  -0.1 0.4500000000014195 0  -0.1 0.4000000000013 0  -0.1 0.3500000000011588 0  -0.1 0.3000000000010178 0  -0.1 0.2500000000008986 0  -0.1 0.2000000000007579 0  -0.1 0.1500000000006174 0  -0.1 0.1000000000005272 0  -0.1 0.05000000000040083 0  -0.1 2.671196597248127e-13 0  -0.1 -0.0499999999998666 0  -0.0500000000000906 -0.1 0  -1.730560139634463e-13 -0.1 0  0.04999999999975802 -0.1 0  0.09999999999961506 -0.1 0  0.1499999999994613 -0.1 0  0.199999999999302 -0.1 0  0.2499999999991446 -0.1 0  0.2999999999990088 -0.1 0  0.3499999999988296 -0.1 0  0.3999999999986936 -0.1 0  0.4499999999985143 -0.1 0  0.4999999999984002 -0.1 0  0.5499999999985247 -0.1 0  0.5999999999986493 -0.1 0  0.6499999999987955 -0.1 0  0.6999999999989417 -0.1 0  0.7499999999990659 -0.1 0  0.7999999999992116 -0.1 0  0.8499999999993573 -0.1 0  0.8999999999994526 -0.1 0  0.949999999999584 -0.1 0  0.9999999999997226 -0.1 0  1.049999999999861 -0.1 0  1.1 -0.0500000000000906 0  1.1 -1.730560139634463e-13 0  1.1 0.04999999999975802 0  1.1 0.09999999999961506 0  1.1 0.1499999999994613 0  1.1 0.199999999999302 0  1.1 0.2499999999991446 0  1.1 0.2999999999990088 0  1.1 0.3499999999988296 0  1.1 0.3999999999986936 0  1.1 0.4499999999985143 0  1.1 0.4999999999984002 0  1.1 0.5499999999985247 0  1.1 0.5999999999986493 0  1.1 0.6499999999987955 0  1.1 0.6999999999989417 0  1.1 0.7499999999990659 0  1.1 0.7999999999992116 0  1.1 0.8499999999993573 0  1.1 0.8999999999994526 0  1.1 0.949999999999584 0  1.1 0.9999999999997226 0  1.1 1.049999999999861 0  1.05000000000004 1.1 0  1.000000000000079 1.1 0  0.9500000000001624 1.1 0  0.9000000000003032 1.1 0  0.850000000000444 1.1 0  0.8000000000005848 1.1 0  0.7500000000007256 1.1 0  0.7000000000008665 1.1 0  0.6500000000010508 1.1 0  0.6000000000012352 1.1 0  0.5500000000014196 1.1 0  0.500000000001539 1.1 0  0.4500000000014195 1.1 0  0.4000000000013 1.1 0  0.3500000000011588 1.1 0  0.3000000000010178 1.1 0  0.2500000000008986 1.1 0  0.2000000000007579 1.1 0  0.1500000000006174 1.1 0  0.1000000000005272 1.1 0  0.05000000000040083 1.1 0  2.671196597248127e-13 1.1 0  -0.0499999999998666 1.1 0  0.3005085869103152 0.6482276000211472 0  0.2897977355044612 0.6318558099398661 0  0.2791858563785474 0.6124592411417437 0  0.269464376809233 0.5904081279971791 0  0.2615622601696989 0.5673856499433771 0  0.2559928071860988 0.5446703576874617 0  0.2528662335898521 0.522405225478528 0  0.2518716774525026 0.5004021948714471 0  0.2530197540691917 0.4781696911398026 0  0.2564421829742871 0.4555331452931186 0  0.2621733791792395 0.4325174084818489 0  0.2700249621060198 0.4094580898394626 0  0.2795513584978869 0.3875482200889319 0  0.2901164994316829 0.3681619995567865 0  0.3008736411477551 0.3518618044270806 0  0.3205986672524992 0.3286692158742792 0  0.3344765715975232 0.3155545184780027 0  0.3515047988778029 0.301801277010294 0  0.3709030283005738 0.2885489008867979 0  0.3913822647655585 0.2770771782716691 0  0.4121391160986992 0.2677953100945973 0  0.4332723342495511 0.2606004882121127 0  0.4548598298942528 0.2553918742137535 0  0.4771654217914643 0.2520572528843349 0  0.4999105816924124 0.2507858171829359 0  0.5225790599679641 0.2517390453373203 0  0.5447800271726685 0.25494664090326 0  0.5660037207666629 0.2602403880303976 0  0.5870280245608577 0.2673371361196237 0  0.607736563458335 0.2766347129193039 0  0.6283880848388859 0.2881431499807688 0  0.6482363681924683 0.3014120118410755 0  0.6655431390154105 0.315110279947984 0  0.6794757728055641 0.3282260985309641 0  0.699448735557463 0.3518224552580982 0  0.7102890964847538 0.3680885642652107 0  0.7210462648785563 0.3876139496861136 0  0.7307137602085628 0.409471946597006 0  0.7385370283694894 0.4323974153527167 0  0.7441503685283457 0.4553408296023156 0  0.7474880656943251 0.4779117518943279 0  0.7486654780547061 0.5003141254783616 0  0.7476822307268117 0.522821515163801 0  0.7443492929232358 0.5454451481565337 0  0.7386904754226905 0.5684077341260663 0  0.730754458977954 0.5913362362195362 0  0.7209937070267308 0.612898765612922 0  0.7102786399729321 0.6321056010610125 0  0.6994660405652586 0.6481494105913066 0  0.6794191546237247 0.671611219884666 0  0.6653289244661623 0.6847514277048939 0  0.6479578033245995 0.6985875335705284 0  0.6282428747560406 0.7120124950925599 0  0.6078249679561853 0.7238316577378286 0  0.5873148199362342 0.7334940862191477 0  0.5662906504077588 0.7408568152101799 0  0.5449021438307573 0.7462395055480401 0  0.522610499862465 0.7494997734826019 0  0.4999198209020528 0.7505725098959954 0  0.4772873195970218 0.7494301254400388 0  0.4551846030042325 0.7461083484353116 0  0.4337236757061776 0.7407390347203512 0  0.4128995889048547 0.7332726411447271 0  0.3922760386996246 0.7236689280438241 0  0.3712022399819928 0.7117998131765709 0  0.3512537162790959 0.6983462899268853 0  0.3340726040663161 0.6846077226496985 0  0.320195120339147 0.6715192802687923 0  0.3814704109167636 0.310583396620992 0  0.2820502837282892 0.4429499860411326 0  0.3817307129623574 0.6897763362560175 0  0.2816708526575609 0.5572012033239907 0  0.7144102989624639 0.5802291555688891 0  0.5974107853902856 0.6997677819414102 0  0.6171705316555969 0.3094354857696433 0  0.7199700124679923 0.4422231622815614 0  0.7254229705173628 0.5112091976756143 0  0.5545301329661998 0.2875144372946287 0  0.4451746596733854 0.2904607115016489 0  0.4443192697385176 0.7106726212698738 0  0.5335160958442959 0.7151452008224856 0  0.2758401441858483 0.4888661012434551 0  0.2938877750214762 0.3974035887004677 0  0.4886320761515012 0.288380549891298 0  0.2984486342930299 0.6011935158418024 0  0.7007403225966408 0.3953578655369696 0  0.4888191743121586 0.7169118645615702 0  0.6380387986884239 0.6803139256144379 0  0.3427076222144012 0.3329843100103142 0  0.6575164208150703 0.334159270056092 0  0.3429876336664262 0.6696957798290121 0  0.6953608192945415 0.6252259689901934 0  0.3114726252681454 0.3575212988301298 0  0.3127972663470185 0.6417632106998801 0  0.6736020278028688 0.6601163518778798 0  0.6891370223596671 0.3570339879230444 0  0.3616339722850825 0.6798682781852524 0  0.3706465049321319 0.6608423407167554 0  0.3909272002521532 0.6673754341509224 0  0.3780635238264949 0.6398225880405881 0  0.3997207477692678 0.643481460147851 0  0.3852544503365111 0.6146964192145846 0  0.4127208634257671 0.6157988504100345 0  0.3950946957140309 0.5844270730994896 0  0.359186447022493 0.6107097504264486 0  0.4297232266833543 0.5849724635000486 0  0.4075066056686424 0.5491115080642962 0  0.3676693552340328 0.5537526971076193 0  0.383287710725242 0.5145480232017504 0  0.345656625249171 0.5163621678078323 0  0.3588423521496958 0.4817726904502753 0  0.3985684722139512 0.4760733060660529 0  0.3786407164456008 0.4433038392900957 0  0.415428679319708 0.4372600970788745 0  0.3966957844466062 0.4066838018264919 0  0.4304871518590692 0.3956706542402789 0  0.3630201693767048 0.4090790400113083 0  0.4070948821613184 0.3731384265271187 0  0.4399662023578184 0.6168976510131031 0  0.4653516568250002 0.5919379850332896 0  0.4839612435482747 0.6159930381890175 0  0.5022001305314077 0.5931389760572477 0  0.5195811888324325 0.6163945315826466 0  0.53815968459496 0.5939208246528642 0  0.5550330198897151 0.6183968006286996 0  0.5741329548714175 0.5955387892069919 0  0.5907468938826779 0.6235427006369649 0  0.6098140677785524 0.5899124007996066 0  0.5957398207
[...]
<PointData  Scalars="state"> 
<DataArray  type="Float64"  Name="state"  format="ascii">0.0000000000000000e+00  0.0000000000000000e+00  0.0000000000000000e+00  0.0000000000000000e+00  0.0000000000000000e+00  0.0000000000000000e+00  0.0000000000000000e+00  0.0000000000000000e+00  -1.6935322525114975e-02  -1.6999216592899050e-02  -1.7107858592367593e-02  -1.6957200570353652e-02  1.3455976754095802e+00  0.0000000000000000e+00  0.0000000000000000e+00  0.0000000000000000e+00  0.0000000000000000e+00  0.0000000000000000e+00  0.0000000000000000e+00  0.0000000000000000e+00  0.0000000000000000e+00  0.0000000000000000e+00  0.0000000000000000e+00  0.0000000000000000e+00  0.0000000000000000e+00  0.0000000000000000e+00  0.0000000000000000e+00  0.0000000000000000e+00  0.0000000000000000e+00  0.0000000000000000e+00  0.0000000000000000e+00  0.0000000000000000e+00  0.0000000000000000e+00  0.0000000000000000e+00  0.0000000000000000e+00  0.0000000000000000e+00  0.0000000000000000e+00  0.0000000000000000e+00  0.0000000000000000e+00  0.0000000000000000e+00  0.0000000000000000e+00  0.0000000000000000e+00  0.0000000000000000e+00  0.0000000000000000e+00  0.0000000000000000e+00  0.0000000000000000e+00  0.0000000000000000e+00  0.0000000000000000e+00  0.0000000000000000e+00  0.0000000000000000e+00  0.0000000000000000e+00  0.0000000000000000e+00  0.0000000000000000e+00  0.0000000000000000e+00  0.0000000000000000e+00  0.0000000000000000e+00  0.0000000000000000e+00  0.0000000000000000e+00  0.0000000000000000e+00  0.0000000000000000e+00  0.0000000000000000e+00  0.0000000000000000e+00  0.0000000000000000e+00  0.0000000000000000e+00  0.0000000000000000e+00  0.0000000000000000e+00  0.0000000000000000e+00  0.0000000000000000e+00  0.0000000000000000e+00  0.0000000000000000e+00  0.0000000000000000e+00  0.0000000000000000e+00  0.0000000000000000e+00  0.0000000000000000e+00  0.0000000000000000e+00  0.0000000000000000e+00  0.0000000000000000e+00  0.0000000000000000e+00  0.0000000000000000e+00  0.0000000000000000e+00  0.0000000000000000e+00  0.0000000000000000e+00  0.0000000000000000e+00  0.0000000000000000e+00  0.0000000000000000e+00  0.0000000000000000e+00  0.0000000000000000e+00  0.0000000000000000e+00  0.0000000000000000e+00  0.0000000000000000e+00  0.0000000000000000e+00  0.0000000000000000e+00  0.0000000000000000e+00  0.0000000000000000e+00  0.0000000000000000e+00  0.0000000000000000e+00  0.0000000000000000e+00  0.0000000000000000e+00  0.0000000000000000e+00  0.0000000000000000e+00  0.0000000000000000e+00  0.0000000000000000e+00  0.0000000000000000e+00  0.0000000000000000e+00  0.0000000000000000e+00  0.0000000000000000e+00  0.0000000000000000e+00  0.0000000000000000e+00  0.0000000000000000e+00  0.0000000000000000e+00  0.0000000000000000e+00  0.0000000000000000e+00  0.0000000000000000e+00  0.0000000000000000e+00  0.0000000000000000e+00  0.0000000000000000e+00  0.0000000000000000e+00  0.0000000000000000e+00  0.0000000000000000e+00  0.0000000000000000e+00  0.0000000000000000e+00  0.0000000000000000e+00  0.0000000000000000e+00  0.0000000000000000e+00  0.0000000000000000e+00  0.0000000000000000e+00  0.0000000000000000e+00  0.0000000000000000e+00  0.0000000000000000e+00  0.0000000000000000e+00  0.0000000000000000e+00  0.0000000000000000e+00  0.0000000000000000e+00  0.0000000000000000e+00  0.0000000000000000e+00  0.0000000000000000e+00  0.0000000000000000e+00  0.0000000000000000e+00  0.0000000000000000e+00  0.0000000000000000e+00  0.0000000000000000e+00  0.0000000000000000e+00  0.0000000000000000e+00  0.0000000000000000e+00  0.0000000000000000e+00  0.0000000000000000e+00  0.0000000000000000e+00  0.0000000000000000e+00  0.0000000000000000e+00  0.0000000000000000e+00  0.0000000000000000e+00  0.0000000000000000e+00  0.0000000000000000e+00  0.0000000000000000e+00  0.0000000000000000e+00  0.0000000000000000e+00  0.0000000000000000e+00  0.0000000000000000e+00  0.0000000000000000e+00  0.0000000000000000e+00  0.0000000000000000e+00  0.0000000000000000e+00  0.0000000000000000e+00  0.0000000000000000e+00  0.0000000000000000e+00  0.0000000000000000e+00  0.0000000000000000e+00  0.0000000000000000e+00  0.0000000000000000e+00  0.0000000000000000e+00  0.0000000000000000e+00  0.0000000000000000e+00  0.0000000000000000e+00  0.0000000000000000e+00  0.0000000000000000e+00  0.0000000000000000e+00  0.0000000000000000e+00  0.0000000000000000e+00  0.0000000000000000e+00  0.0000000000000000e+00  0.0000000000000000e+00  -1.4001176694209907e-02  -1.3225706530313186e-02  -1.1231306411962207e-02  -1.0261683455764488e-02  -9.6973177112315845e-03  -9.3611191432934372e-03  -8.9925480333125935e-03  -9.6304717646006916e-03  -8.2698441903121481e-03  -8.7703106605623252e-03  -1.0079509840287574e-02  -1.0792780606241453e-02  -1.1070697242076292e-02  -1.2668596990304965e-02  -1.3600705067774735e-02  -1.4302061866378162e-02  -1.2761316662981628e-02  -1.1133065336472726e-02  -9.8590533320279481e-03  -9.4393824776686543e-03  -7.7695353819119874e-03  -7.2946736836292077e-03  -7.4557836843098697e-03  -6.3243153177239379e-03  -6.8814641130080772e-03  -7.0185957264567462e-03  -6.8577407761349412e-03  -8.3311931652808608e-03  -7.2752890499357889e-03  -9.9315831007739993e-03  -1.0753432211371542e-02  -1.1399896022876187e-02  -1.2689013481994076e-02  -1.4336610059899077e-02  -1.4346139431081048e-02  -1.2972476802081849e-02  -1.1367303989590214e-02  -1.0176201022745229e-02  -9.8066032308257653e-03  -9.4425682999617535e-03  -9.2207538210164110e-03  -8.5058193751385760e-03  -8.1077461521629618e-03  -8.8831087979433145e-03  -9.2815640495619110e-03  -9.6055616285998444e-03  -1.1327924465153934e-02  -1.2827982049498572e-02  -1.4228836078792695e-02  -1.4046138857639811e-02  -1.2677106955959189e-02  -1.1610378755910868e-02  -1.0806629154253173e-02  -9.9846408248929919e-03  -7.7775142323314363e-03  -8.6999388541217620e-03  -6.6599587216741611e-03  -6.4345686413247276e-03  -6.5137325660153669e-03  -6.7394304084868835e-03  -7.3148646761963506e-03  -6.7247566069090553e-03  -8.0892120384113402e-03  -9.5519047109510462e-03  -9.8901773289325270e-03  -1.1062999014741110e-02  -1.2775173451454068e-02  -1.4242923880670826e-02  5.3023814890856204e-02  5.0653908901782181e-02  5.3478688185790366e-02  5.0380480973118605e-02  4.7039585508399616e-02  5.6089268162093829e-02  5.2932214125260842e-02  4.8853824692296148e-02  4.9054934906712831e-02  6.1321774646977044e-02  6.4433232231271259e-02  6.4859573927453743e-02  6.3935993240302025e-02  5.0705796408489517e-02  4.3880948370475424e-02  7.4902841410393356e-02  5.0157049016352928e-02  4.8980997492446873e-02  6.7839973488390215e-02  4.8438410792939375e-02  4.4361259845975325e-02  4.5991043742657521e-02  4.2351090019381830e-02  4.2558024833357827e-02  3.3163579532143550e-02  3.6211208576750455e-02  3.4437693559391559e-02  3.3772422212384086e-02  4.8097560764946923e-02  8.1593903130018394e-02  1.0477341871173450e-01  1.7347769900991711e-01  2.5040767634933819e-01  4.4657142037596220e-01  7.2713471203374924e-01  8.0065876844773209e-01  2.1409160202250360e-01  9.3743598368783931e-01  9.7544925024800622e-01  7.4650310117224816e-01  8.9959780083496621e-01  5.6715332380462979e-01  7.5023684534272250e-01  9.7498828649168834e-01  8.1641860833370483e-01  9.6519664287698492e-01  7.7753670729667257e-01  8.5436976627327954e-01  4.1361375143696338e-01  5.3906919839322365e-01  8.3349076450354309e-01  1.0251028539048708e+00  9.0071595123582893e-01  1.0689846252958957e+00  8.7829562252418325e-01  1.0082597242363367e+00  8.2102078297223047e-01  8.7547061533215786e-01  6.0745306691034151e-01  7.6189148207913193e-01  9.3283691773475053e-01  7.5533966671666664e-01  9.0903269279530186e-01  3.5378211379409485e-01  2.6416463976696503e-01  2.9766448898077358e-01  4.5473910125373401e-01  2.5397252240259444e-01  1.4512824407206304e-01  6.6089595158383729e-01  9.0309807779107043e-01  1.2361369159582114e-01  2.0521724906596409e-01  5.6220797069541995e-01  4.2335646272269611e-01  6.6856797643260102e-01  9.5240937886742116e-01  6.1721172573966410e-01  8.9387006907776267e-01  1.1186505396806556e+00  9.4348220623281498e-01  7.7304883311021266e-01  7.7916789959919497e-01  9.9543480440779208e-01  7.7908259201297225e-01  4.3071368143326394e-01  3.4743984946252099e-01  6.0664029451412860e-01  1.7154542003690992e-01  1.4068113630630019e-01  9.8870178664397970e-02  1.0328359812539599e-01  1.1365776006144979e+00  1.2717120520290132e-01  1.4953270006044200e-01  1.0473316409778040e-01  1.4579743065780756e-01  8.4991448103332409e-02  8.7241699573850709e-02  1.2248970484330002e-01  5.3128051148815036e-01  1.4085856719297332e-01  7.4527685950252595e-02  2.0179644612145775e-01  3.5130941138977867e-01  1.5834953127124812e-01  1.5057568841615290e-01  2.6267875660440959e-01  1.2418265540031488e-01  9.9070192577816463e-02  9.0530166311282245e-02  1.2723574727006320e-01  8.8175246151026274e-02  1.3669001757112245e-01  6.4590693758932713e-02  2.7988539384554861e-01  1.2165750404492341e+00  7.8132435524963392e-02  1.1995357962761866e+00  6.0008599577967181e-01  1.5977051452601723e-01  4.9855458139142989e-01  1.6657648689802360e-01  8.8201448064039345e-02  7.6979554953737511e-02  1.3844893252564694e-01  3.5007152094715621e-01  1.8757582505908996e-01  1.0306994317971885e-01  1.0144077684564023e+00  6.3723292400231737e-02  5.3054461687200669e-02  2.9341276451547921e-01  1.4919408826538549e-01  1.6070244268677736e-01  2.8539376968857572e-01  1.9038096546449343e-01  9.7519802326459529e-02  1.4699247231068610e-01  1.0419946097431160e-01  7.3923995220844474e-02  6.5185882598579020e-02  4.4048132705651472e-02  4.8783253217841660e-02  8.7430335320807476e-02  5.8977733375007765e-02  6.4018766144435399e-02  6.6716716193803538e-02  4.1278964988335026e-02  4.0686492057806632e-02  6.2368768252333361e-02  1.3354844625955520e-01  3.8848008136671686e-01  4.9326019432219780e-02  5.7730873676900475e-02  6.7623210844615436e-02  4.7952627098745863e-02  7.0989805133411563e-02  6.7152951008293799e-02  5.4988241477940299e-02  4.2332151262724223e-02  5.7956384589935649e-02  6.3085738738052732e-02  4.9034191589396592e-02  7.5013932867248931e-02  6.0163367911103847e-02  1.1256214287624645e-01  6.3264848058309425e-02  5.1993206420247844e-02  4.3140037659199625e-02  4.2918831091652676e-02  7.4114996504879987e-02  2.3314706784640393e-01  6.3387749609114447e-02  5.7082712941964923e-02  8.2064883505723385e-02  3.3672323145850239e-02  3.4042300423373681e-02  3.3235275243972191e-02  3.4462267669474786e-02  5.0954728743821079e-02  1.1025671269111397e+00  1.2650971215729210e+00  9.4595121771429272e-02  4.9565940777748084e-02  4.6183490423304323e-02  5.5456989318082177e-02  4.1174629967794862e-02  6.2160120101895568e-02  7.7221310158783016e-02  1.8037512198612973e-01  2.0441683208394854e-01  6.5730013586231706e-02  1.8167391268440206e-01  1.1522139916128475e+00  1.1746727446082947e+00  8.2983770133060075e-01  1.2524247877277098e-01  7.8469815486617162e-02  1.5303684502182446e-01  1.1817349343932770e-01  1.5098580014425894e-01  4.8735377991750761e-02  4.7685858832625376e-02  1.1404516350183944e+00  5.3045288527731105e-02  1.3283966768150601e-01  1.1185561942508562e-01  5.2296323790891319e-01  6.4731638583889667e-02  4.9353964252951610e-01  8.4500979722959335e-01  4.6660175049107327e-02  1.2878695190947345e+00  5.3062403551017734e-01  3.6799559320403144e-02  4.1564823038191306e-01  1.3267637550112238e-01  1.1794275369579198e-01  1.1410761037413273e+00  4.8883346349381664e-02  9.3906459104127177e-02  1.4158269968424295e-01  1.3020936239762517e+00  8.3088628050980107e-02  1.6176017858637257e-01  1.2681146944685486e+00  3.1996218162150314e-01  1.5707224380063387e-01  1.2959301777058831e+00  5.7928146841698425e-01  7.2234177787873721e-02  8.3518496795556729e-02  2.1263012244767077e-01  7.2575733743633120e-01  1.2853665977357151e-01  4.0995155466184055e-02  4.5284778576405466e-01  3.5972421726902709e-02  3.6079961778362223e-02  3.5168148941950708e-02  3.6637197312981706e-02  8.6121162661542738e-02  5.6412504420716755e-02  6.8177671376915522e-02  5.5985110861054635e-02  1.2149796509854599e-01  7.1370031852215365e-01  6.8141061402529762e-02  7.6805642857207271e-02  2.0071620744917240e-01  8.2328529624941482e-01  6.8772756322574158e-01  8.4314535348600006e-01  6.6517537609044233e-02  8.1979741288431418e-01  1.3041017158492707e-01  7.2203296862722111e-01  1.2959875701542964e+00  1.3418390661221927e-01  5.6727553561299904e-01  2.5028179204684381e-01  1.3847395949352048e-01  4.2031411962730014e-01  8.0490432409109924e-01  1.1783568054016171e+00  4.3614513664065817e-02  -1.7866140092712712e-02  -1.7692911796990972e-02  -1.9549506253341776e-02  -2.1745379810932025e-02  -1.9633456603215204e-02  -2.2102300796175482e-02  -1.7932641941338472e-02  -1.9376817772612388e-02  -1.7946753619199920e-02  -1.9528423848686343e-02  -2.1887684436321168e-02  -2.1870150597873214e-02  -1.3877710153822862e-02  -1.3259628330237350e-02  -1.4461488452096376e-02  -1.3558556708735009e-02  -1.8919219957290030e-02  -2.1567762372106426e-02  -2.1655820914298542e-02  -1.8777377215323972e-02  -2.4353249088366891e-02  -2.6373413072865212e-02  -1.9148476988692507e-02  -1.9207154649398754e-02  -2.2935706450421946e-02  -2.6114666605213312e-02  -2.6965733501064616e-02  -2.6791062719112402e-02  -2.7701418153085626e-02  -2.7653433449515173e-02  -1.4949358109758715e-02  -1.4596930510906048e-02  -1.4930331642650556e-02  -1.4571810674659206e-02  -1.4681159278144144e-02  -1.4602848962249261e-02  -1.4739008396386422e-02  -2.7658513301059440e-02  -2.7742301335988470e-02  -2.7062214313882303e-02  -2.6290089837194150e-02  -1.5583398040920616e-02  -1.5226011555924389e-02  -1.5099165991305443e-02  -1.4978772034559180e-02  -1.5276952555402965e-02  -1.4996102818951699e-02  -1.5992993785586607e-02  -1.4471372392546403e-02  -2.6512215354084243e-02  -2.6013310359449381e-02  -1.4899442412999115e-02  -1.4516033049969365e-02  -1.4918176899573097e-02  -2.4508829335608100e-02  -2.6407935862981333e-02  -2.6462226903499284e-02  -2.7160335295995056e-02  -2.7551536871571084e-02  -2.7824630744485115e-02  -2.7564734675260182e-02  -2.7690688602086504e-02  -2.7599234403041909e-02  -2.7237832548810976e-02  -2.4373801284935548e-02  -2.6384902720104967e-02  -2.6374876376295354e-02  -2.7085292452106148e-02  -2.6578674146646115e-02  -2.7454306177427210e-02  -2.7742788273780065e-02  -2.7617131967706869e-02  -2.7508360769396618e-02  -2.7176220089607007e-02  -2.0233655726960939e-02  -2.4413070835536350e-02  -2.6416106718560921e-02  -2.6157211269091270e-02  -2.7025198556022083e-02  -2.6836858919987307e-02  -2.7733959999722377e-02  -2.7708486195621728e-02  -2.7713057705517900e-02  -2.7720895476110976e-02  -1.8207856856165099e-02  -1.8783523647387702e-02  -1.9905554245950211e-02  -1.9927663788356843e-02  -2.7485391770133229e-02  -2.6941514467319395e-02  -2.6867875495832944e-02  -2.6984499075327743e-02  -2.7051339875388686e-02  -2.7111687108337980e-02  -1.4508411093970325e-02  -2.6720999118384822e-02  -2.7485489280557142e-02  -2.6911021214727174e-02  -2.6667199618688586e-02  -2.7279032066894908e-02  -2.7372576409115466e-02  -2.0254328186166872e-02  -2.5286172677071311e-02  -2.5438995632747943e-02  -1.2497195518022983e-02  -1.2195411755829184e-02  -1.2426512748822722e-02  -2.5249802328684130e-02  -2.5348876720177844e-02  -2.4824894324962366e-02  -2.4546585927926887e-02  -2.5937685481251353e-02  -2.6616155906254022e-02  -2.5828304980639660e-02  -2.6461363216333595e-02  -2.5140922825770143e-02  -2.6304275177015581e-02  -2.4712805693955356e-02  -2.5519862485398309e-02  -2.4114944774493188e-02  -2.4458374161748651e-02  -2.5292216216544584e-02  -2.6349489666919915e-02  -2.4783709200399143e-02  -2.5453333460517161e-02  -2.4144680081200874e-02  -2.4551971845524705e-02  -2.3487488877573650e-02  -2.3800130402050833e-02  -2.2956458552265292e-02  -2.3295068943687706e-02  -2.2598770470500441e-02  -2.3076171138602105e-02  -2.2482576952800207e-02  -2.3163398802068989e-02  -2.3398651403873601e-02  -2.3684950679080035e-02  -2.2840628596220203e-02  -2.3172983813680575e-02  -2.2471132734300132e-02  -2.2947334329768185e-02  -2.2340911979818308e-02  -2.3034111908979329e-02  -2.5114119797304501e-02  -2.5140500240286880e-02  -2.6663785397850328e-02  -2.6565548408355771e-02  -2.5051806785396095e-02  -2.4898571809632557e-02  -2.2683852713976414e-02  -2.3558758138082243e-02  -2.3019625757833131e-02  -2.4169846693676725e-02  -2.3436510480274748e-02  -2.2541863807862623e-02  -2.3422192161935678e-02  -2.2872057309246099e-02  -2.4036903037455270e-02  -2.3306254169950816e-02  -2.7228587056180156e-02  -2.5804038903833339e-02  -2.5462263405783735e-02  -2.3774855404683128e-02  -2.4470078071212393e-02  -2.3874363463414872e-02  -2.4557060621729663e-02  -2.2894511824095614e-02  -2.2993775228993436e-02  -2.3015529915466033e-02  -2.3154341208553801e-02  -2.3301623576811297e-02  -2.0904575090823621e-02  -2.3407054196289068e-02  -2.4488400960346626e-02  -2.3414539414877204e-02  -2.2594609466738948e-02  -2.0763435937976908e-02  -2.4531519574505761e-02  -2.3070625428072852e-02  -2.4657174680871995e-02  -2.2341723274660118e-02  -2.4776513198216530e-02  -2.2466996441218915e-02  -2.2360810554888897e-02  -2.2125441604845725e-02  -2.4280722048872945e-02  -2.1882135016447399e-02  -2.4063210416566779e-02  -1.8873966991525298e-02  -2.6643046062385739e-02  -9.6808496031222241e-03  -2.5388520009958410e-02  -2.6740770229896529e-02  -2.1795545303846506e-02  -2.1879635612653239e-02  -2.3516169205965016e-02  -2.1879461352767492e-02  -2.5652146830724924e-02  -2.5525685341722060e-02  -2.5283828613766397e-02  -2.6324334362254353e-02  -2.5597906873236622e-02  -2.6082572903687110e-02  -2.5345240114875295e-02  -2.4705719690078627e-02  -2.4246544042894995e-02  -2.5519914545868390e-02  -2.4501662641733323e-02  -2.3691836525182940e-02  -2.3701070709484774e-02  -2.3167234439374240e-02  -2.3233806937291615e-02  -2.2907034673382440e-02  -2.3010894240535169e-02  -2.3528994262760689e-02  -2.3345158664760998e-02  -2.1952586380905557e-02  -2.4050381582866310e-02  -2.4052230320657533e-02  -2.3475764676073606e-02  -1.9268129594666998e-02  -2.2967529392961174e-02  -2.2066275534128883e-02  -2.2437541493214998e-02  -2.1930100540485910e-02  -9.2061216622288319e-03  -9.9853000130829071e-03  -9.4996219491314086e-03  -2.5991648859112846e-02  -2.3241069748867568e-02  -2.6851692028746144e-02  -2.4707750289717105e-02  -2.6005113609213308e-02  -1.9525019818648869e-02  -2.0204313448184956e-02  -2.0425010431147292e-02  -2.3568254768413646e-02  -2.4841098914859368e-02  -2.5686236009010828e-02  -2.4832872106175047e-02  -2.3581495102982828e-02  -2.3862479328331725e-02  -2.4071399113834019e-02  -2.3529500167177999e-02  -2.3149732937062430e-02  -2.3145575493599937e-02  -2.2260432797486924e-02  -2.2871372752185971e-02  -2.2956208110205746e-02  -2.3078415384519730e-02  -2.2727525824501292e-02  -2.3392067752341390e-02  -2.2663123664198152e-02  -2.3773070610557626e-02  -2.3810084504274534e-02  -2.4490991941064588e-02  -2.4048896613956601e-02  -2.5334344487307987e-02  -2.4079215319261157e-02  -2.5915879329487704e-02  -2.3572670484477826e-02  -2.5369512516153256e-02  -2.3353802132036031e-02  -2.4316186325071865e-02  -2.2693448463381647e-02  -2.6061276160087053e-02  -2.5618726294447614e-02  -2.2006690265907704e-02  -2.0545342396840534e-02  -2.3409106743393322e-02  -2.2760151455470782e-02  -2.5957876121762428e-02  -2.2851953627251377e-02  -2.5318487375465135e-02  -2.1594878665040083e-02  -2.1546349135426777e-02  -2.3550919059110831e-02  -2.5945515150489335e-02  -2.1039859722089670e-02  -2.4352748896970759e-02  -2.2477499351281668e-02  -2.0992285495893510e-02  -2.1327854839331254e-02  -2.1604918142632192e-02  -2.4023600722248635e-02  -2.2193447326785704e-02  -2.3199542932416002e-02  -2.2681964408284353e-02  -2.3909401231230750e-02  -2.4577862279758146e-02  -2.0798079052468613e-02  -2.1588611735980198e-02  -1.7515937658439482e-02  -2.2176353170462272e-02  -2.3061876075390803e-02  -2.5014476309364028e-02  -2.2793769842975476e-02  -2.1669274346999327e-02  -1.7403