<?xml version="1.0"?>
<VTKFile type="UnstructuredGrid"  version="0.1"  >
<UnstructuredGrid>
<Piece  NumberOfPoints="1297" NumberOfCells="2496">
<Points>
<DataArray  type="Float64"  NumberOfComponents="3"  format="ascii">0 0 0  0 1 0  1 1 0  1 0 0  1.1 -0.1 0  -0.1 -0.1 0  1.1 1.1 0  -0.1 1.1 0  0.2900649762124244 0.6776517790108284 0  0.2904257534182367 0.3230109352146807 0  0.709963522362874 0.3223675855067866 0  0.7099037849803067 0.6777772333662904 0  0.5001010974401574 0.5001528081107421 0  0 0.9499999999997918 0  0 0.8999999999995836 0  0 0.8499999999996529 0  0 0.7999999999999998 0  0 0.7500000000003466 0  0 0.7000000000006934 0  0 0.6500000000010401 0  0 0.6000000000013869 0  0 0.5500000000017335 0  0 0.5000000000020587 0  0 0.4500000000018723 0  0 0.4000000000016644 0  0 0.3500000000014564 0  0 0.3000000000012483 0  0 0.2500000000010403 0  0 0.2000000000008322 0  0 0.1500000000006241 0  0 0.100000000000416 0  0 0.05000000000020799 0  0.04999999999989965 0 0  0.09999999999981467 0 0  0.1499999999997036 0 0  0.1999999999995579 0 0  0.2499999999994121 0 0  0.2999999999992664 0 0  0.3499999999991206 0 0  0.3999999999989749 0 0  0.4499999999988292 0 0  0.4999999999986943 0 0  0.5499999999988151 0 0  0.5999999999989468 0 0  0.6499999999990784 0 0  0.69999999999921 0 0  0.7499999999993417 0 0  0.7999999999994734 0 0  0.8499999999996051 0 0  0.8999999999997368 0 0  0.9499999999998684 0 0  1 0.04999999999989965 0  1 0.09999999999981467 0  1 0.1499999999997036 0  1 0.1999999999995579 0  1 0.2499999999994121 0  1 0.2999999999992664 0  1 0.3499999999991206 0  1 0.3999999999989749 0  1 0.4499999999988292 0  1 0.4999999999986943 0  1 0.5499999999988151 0  1 0.5999999999989468 0  1 0.6499999999990784 0  1 0.69999999999921 0  1 0.7499999999993417 0  1 0.7999999999994734 0  1 0.8499999999996051 0  1 0.8999999999997368 0  1 0.9499999999998684 0  0.9499999999997918 1 0  0.8999999999995836 1 0  0.8499999999996529 1 0  0.7999999999999998 1 0  0.7500000000003466 1 0  0.7000000000006934 1 0  0.6500000000010401 1 0  0.6000000000013869 1 0  0.5500000000017335 1 0  0.5000000000020587 1 0  0.4500000000018723 1 0  0.4000000000016644 1 0  0.3500000000014564 1 0  0.3000000000012483 1 0  0.2500000000010403 1 0  0.2000000000008322 1 0  0.1500000000006241 1 0  0.100000000000416 1 0  0.05000000000020799 1 0  -0.1 1.05000000000004 0  -0.1 1.000000000000079 0  -0.1 0.9500000000001624 0  -0.1 0.9000000000003032 0  -0.1 0.850000000000444 0  -0.1 0.8000000000005848 0  -0.1 0.7500000000007256 0  -0.1 0.7000000000008665 0  -0.1 0.6500000000010508 0  -0.1 0.6000000000012352 0  -0.1 0.5500000000014196 0  -0.1 0.500000000001539 0  -0.1 0.4500000000014195 0  -0.1 0.4000000000013 0  -0.1 0.3500000000011588 0  -0.1 0.3000000000010178 0  -0.1 0.2500000000008986 0  -0.1 0.2000000000007579 0  -0.1 0.1500000000006174 0  -0.1 0.1000000000005272 0  -0.1 0.05000000000040083 0  -0.1 2.671196597248127e-13 0  -0.1 -0.0499999999998666 0  -0.0500000000000906 -0.1 0  -1.730560139634463e-13 -0.1 0  0.04999999999975802 -0.1 0  0.09999999999961506 -0.1 0  0.1499999999994613 -0.1 0  0.199999999999302 -0.1 0  0.2499999999991446 -0.1 0  0.2999999999990088 -0.1 0  0.3499999999988296 -0.1 0  0.3999999999986936 -0.1 0  0.4499999999985143 -0.1 0  0.4999999999984002 -0.1 0  0.5499999999985247 -0.1 0  0.5999999999986493 -0.1 0  0.6499999999987955 -0.1 0  0.6999999999989417 -0.1 0  0.7499999999990659 -0.1 0  0.7999999999992116 -0.1 0  0.8499999999993573 -0.1 0  0.8999999999994526 -0.1 0  0.949999999999584 -0.1 0  0.9999999999997226 -0.1 0  1.049999999999861 -0.1 0  1.1 -0.0500000000000906 0  1.1 -1.730560139634463e-13 0  1.1 0.04999999999975802 0  1.1 0.09999999999961506 0  1.1 0.1499999999994613 0  1.1 0.199999999999302 0  1.1 0.2499999999991446 0  1.1 0.2999999999990088 0  1.1 0.3499999999988296 0  1.1 0.3999999999986936 0  1.1 0.4499999999985143 0  1.1 0.4999999999984002 0  1.1 0.5499999999985247 0  1.1 0.5999999999986493 0  1.1 0.6499999999987955 0  1.1 0.6999999999989417 0  1.1 0.7499999999990659 0  1.1 0.7999999999992116 0  1.1 0.8499999999993573 0  1.1 0.8999999999994526 0  1.1 0.949999999999584 0  1.1 0.9999999999997226 0  1.1 1.049999999999861 0  1.05000000000004 1.1 0  1.000000000000079 1.1 0  0.9500000000001624 1.1 0  0.9000000000003032 1.1 0  0.850000000000444 1.1 0  0.8000000000005848 1.1 0  0.7500000000007256 1.1 0  0.7000000000008665 1.1 0  0.6500000000010508 1.1 0  0.6000000000012352 1.1 0  0.5500000000014196 1.1 0  0.500000000001539 1.1 0  0.4500000000014195 1.1 0  0.4000000000013 1.1 0  0.3500000000011588 1.1 0  0.3000000000010178 1.1 0  0.2500000000008986 1.1 0  0.2000000000007579 1.1 0  0.1500000000006174 1.1 0  0.1000000000005272 1.1 0  0.05000000000040083 1.1 0  2.671196597248127e-13 1.1 0  -0.0499999999998666 1.1 0  0.2832919932955765 0.6629858173344366 0  0.2784563017287979 0.6430994415774678 0  0.2747436767487095 0.6205316078286303 0  0.2709814414241113 0.5961234265840094 0  0.2669299151670937 0.5713198439849493 0  0.2631669761149241 0.5471692878697769 0  0.2607119636324501 0.523625506543032 0  0.2599936863348868 0.5004367776517533 0  0.2610601463093876 0.4771453456806594 0  0.2638190120118674 0.453461506192291 0  0.2676340594808972 0.4291377626050898 0  0.2715899001395807 0.4043144674810877 0  0.275238396379671 0.3800214319959188 0  0.2788917460762258 0.3574909030766931 0  0.283711219861806 0.3376399479503026 0  0.3041223411295 0.3145700570769855 0  0.3227235042795416 0.307197579037745 0  0.3442903838050551 0.3000288548409458 0  0.3672453659105441 0.2917725754996043 0  0.3899687365954405 0.282458323233164 0  0.4117527804936414 0.2733581877876936 0  0.4332663122324308 0.2655840711073385 0  0.4549212839533401 0.2596112702372849 0  0.4771752143049722 0.2554787343387349 0  0.4999102987852617 0.2538262904159825 0  0.5226697257182811 0.2549175264681692 0  0.545050030715062 0.2587456774711396 0  0.5665008207971958 0.2650194704894475 0  0.5880770375808874 0.2726039959288916 0  0.6098214372769943 0.2815933349165495 0  0.6325988335202316 0.2907499225778192 0  0.6557744399383556 0.2990518836924146 0  0.677408286806227 0.3063729530511945 0  0.6960860753144062 0.3138913899012552 0  0.7167096077690467 0.3373224672967682 0  0.7215659353381484 0.3571636594024123 0  0.7252831089962254 0.3799178441076775 0  0.7290117131161163 0.4043938560501905 0  0.7331256503674366 0.4292316491947308 0  0.7369850401073829 0.4535010174595535 0  0.7397059930855279 0.477106589219519 0  0.7407632378112892 0.500432101748485 0  0.7398857495888757 0.5238077538423052 0  0.7369794283034437 0.5473676185345496 0  0.732902728876064 0.5715402049627637 0  0.7286998731884319 0.5962771612839889 0  0.7251546877101795 0.6205244956683998 0  0.7215188072602191 0.6431140874499913 0  0.7166635066816913 0.6628724026477858 0  0.6960546029160863 0.6862186457665437 0  0.677363824026619 0.6936656826773963 0  0.6556521155408993 0.7009789921107727 0  0.6324862567437931 0.7092648405841006 0  0.6097520994031709 0.7184964381738592 0  0.5880977283995128 0.7276726387993783 0  0.5665835246651346 0.735533952932116 0  0.5450978222195243 0.7420277913208024 0  0.5227359397963462 0.7461558276380286 0  0.4999424440226298 0.7475601427060379 0  0.4771861064413664 0.7461675328933745 0  0.4549152761095151 0.7421299893095558 0  0.4331756786012506 0.7359365914683952 0  0.4118766984776499 0.7277310116583173 0  0.3902113070974167 0.718447350557718 0  0.3672035505676038 0.7090658553175249 0  0.3440767532500895 0.7007764128859925 0  0.3225061686367163 0.693555565424134 0  0.3038407560180442 0.6861200189935659 0  0.3776803529744175 0.311596492703287 0  0.2857809060829646 0.4402088982109847 0  0.3776996968613628 0.6891244589405179 0  0.2853013418065875 0.5603627327495772 0  0.7128580975620312 0.5843302826652876 0  0.5998527926880654 0.6970973907282341 0  0.6212567059362045 0.3101949598153718 0  0.7161897752012372 0.4395493890919995 0  0.7197683025037604 0.5117252442792786 0  0.5554192577381066 0.2905253045040774 0  0.4446069763141278 0.2935336270485347 0  0.4434035677170522 0.70766657432373 0  0.5339529306696119 0.7122471439711778 0  0.2815338068517574 0.4884265924163321 0  0.2909098333289047 0.3912466516788771 0  0.4886090230955902 0.2908990109615257 0  0.2954289042209522 0.6075457201941381 0  0.7044277309450165 0.3890040704055862 0  0.4886694096669206 0.7143148321425622 0  0.6447123907674878 0.6829161510388136 0  0.3331269721741164 0.3263389248740701 0  0.6673026270107367 0.3270783136885639 0  0.3335756704121301 0.6765566461426564 0  0.703763791284587 0.6341410595275222 0  0.2986664872257884 0.346311570874115 0  0.3004116272065087 0.6530935476319514 0  0.686827011312809 0.6712541099019075 0  0.7022898990311971 0.3454146958280805 0  0.3552628689796358 0.6825237513557988 0  0.3656578985802849 0.6631564947358155 0  0.387519463169622 0.6676225161032244 0  0.3745278471122726 0.6417302460203704 0  0.3973019954152967 0.6439640415046883 0  0.3832906466012496 0.6160167937257129 0  0.4113757540956416 0.6161759635600862 0  0.3942298597308187 0.5853446398535478 0  0.356375462916287 0.6136604590383786 0  0.4290851652179659 0.5852571527404806 0  0.4072231284802222 0.5496347427231588 0  0.367543214377077 0.5549787906715283 0  0.3834251251032607 0.5148770740359452 0  0.3464468939117482 0.5169476748951386 0  0.3593274553573283 0.4814255369309039 0  0.398532169234685 0.4758564948046733 0  0.3783823063123238 0.442444600913666 0  0.4150071953306671 0.436906404058853 0  0.3956471609890351 0.4059525122507862 0  0.4296505359245091 0.3956005280823209 0  0.3616303642434973 0.4071729852484187 0  0.405461773789412 0.3728721784468558 0  0.4390673969267842 0.6168300757499643 0  0.464989201955186 0.5918953801462727 0  0.483734125347658 0.6156998061404478 0  0.5022408765669639 0.5930012368742594 0  0.5198876771935624 0.6160878192739948 0  0.5386016792701807 0.5938520016700239 0  0.5558995192915269 0.6182331838180515 0  0.574963872954009 0.5957658127630406 0  0.5923779677847346 0.6238665504821187 0  0.6108712157609447 0.5908682528314978 0  0.5961221456212943 0.5
[...]
<PointData  Scalars="state"> 
<DataArray  type="Float64"  Name="state"  format="ascii">0.0000000000000000e+00  0.0000000000000000e+00  0.0000000000000000e+00  0.0000000000000000e+00  0.0000000000000000e+00  0.0000000000000000e+00  0.0000000000000000e+00  0.0000000000000000e+00  -2.0906749635291891e-02  -2.1006598538177740e-02  -2.1067545359514279e-02  -2.0987804403223852e-02  1.3523729992990823e+00  0.0000000000000000e+00  0.0000000000000000e+00  0.0000000000000000e+00  0.0000000000000000e+00  0.0000000000000000e+00  0.0000000000000000e+00  0.0000000000000000e+00  0.0000000000000000e+00  0.0000000000000000e+00  0.0000000000000000e+00  0.0000000000000000e+00  0.0000000000000000e+00  0.0000000000000000e+00  0.0000000000000000e+00  0.0000000000000000e+00  0.0000000000000000e+00  0.0000000000000000e+00  0.0000000000000000e+00  0.0000000000000000e+00  0.0000000000000000e+00  0.0000000000000000e+00  0.0000000000000000e+00  0.0000000000000000e+00  0.0000000000000000e+00  0.0000000000000000e+00  0.0000000000000000e+00  0.0000000000000000e+00  0.0000000000000000e+00  0.0000000000000000e+00  0.0000000000000000e+00  0.0000000000000000e+00  0.0000000000000000e+00  0.0000000000000000e+00  0.0000000000000000e+00  0.0000000000000000e+00  0.0000000000000000e+00  0.0000000000000000e+00  0.0000000000000000e+00  0.0000000000000000e+00  0.0000000000000000e+00  0.0000000000000000e+00  0.0000000000000000e+00  0.0000000000000000e+00  0.0000000000000000e+00  0.0000000000000000e+00  0.0000000000000000e+00  0.0000000000000000e+00  0.0000000000000000e+00  0.0000000000000000e+00  0.0000000000000000e+00  0.0000000000000000e+00  0.0000000000000000e+00  0.0000000000000000e+00  0.0000000000000000e+00  0.0000000000000000e+00  0.0000000000000000e+00  0.0000000000000000e+00  0.0000000000000000e+00  0.0000000000000000e+00  0.0000000000000000e+00  0.0000000000000000e+00  0.0000000000000000e+00  0.0000000000000000e+00  0.0000000000000000e+00  0.0000000000000000e+00  0.0000000000000000e+00  0.0000000000000000e+00  0.0000000000000000e+00  0.0000000000000000e+00  0.0000000000000000e+00  0.0000000000000000e+00  0.0000000000000000e+00  0.0000000000000000e+00  0.0000000000000000e+00  0.0000000000000000e+00  0.0000000000000000e+00  0.0000000000000000e+00  0.0000000000000000e+00  0.0000000000000000e+00  0.0000000000000000e+00  0.0000000000000000e+00  0.0000000000000000e+00  0.0000000000000000e+00  0.0000000000000000e+00  0.0000000000000000e+00  0.0000000000000000e+00  0.0000000000000000e+00  0.0000000000000000e+00  0.0000000000000000e+00  0.0000000000000000e+00  0.0000000000000000e+00  0.0000000000000000e+00  0.0000000000000000e+00  0.0000000000000000e+00  0.0000000000000000e+00  0.0000000000000000e+00  0.0000000000000000e+00  0.0000000000000000e+00  0.0000000000000000e+00  0.0000000000000000e+00  0.0000000000000000e+00  0.0000000000000000e+00  0.0000000000000000e+00  0.0000000000000000e+00  0.0000000000000000e+00  0.0000000000000000e+00  0.0000000000000000e+00  0.0000000000000000e+00  0.0000000000000000e+00  0.0000000000000000e+00  0.0000000000000000e+00  0.0000000000000000e+00  0.0000000000000000e+00  0.0000000000000000e+00  0.0000000000000000e+00  0.0000000000000000e+00  0.0000000000000000e+00  0.0000000000000000e+00  0.0000000000000000e+00  0.0000000000000000e+00  0.0000000000000000e+00  0.0000000000000000e+00  0.0000000000000000e+00  0.0000000000000000e+00  0.0000000000000000e+00  0.0000000000000000e+00  0.0000000000000000e+00  0.0000000000000000e+00  0.0000000000000000e+00  0.0000000000000000e+00  0.0000000000000000e+00  0.0000000000000000e+00  0.0000000000000000e+00  0.0000000000000000e+00  0.0000000000000000e+00  0.0000000000000000e+00  0.0000000000000000e+00  0.0000000000000000e+00  0.0000000000000000e+00  0.0000000000000000e+00  0.0000000000000000e+00  0.0000000000000000e+00  0.0000000000000000e+00  0.0000000000000000e+00  0.0000000000000000e+00  0.0000000000000000e+00  0.0000000000000000e+00  0.0000000000000000e+00  0.0000000000000000e+00  0.0000000000000000e+00  0.0000000000000000e+00  0.0000000000000000e+00  0.0000000000000000e+00  0.0000000000000000e+00  0.0000000000000000e+00  0.0000000000000000e+00  0.0000000000000000e+00  0.0000000000000000e+00  0.0000000000000000e+00  0.0000000000000000e+00  0.0000000000000000e+00  0.0000000000000000e+00  0.0000000000000000e+00  0.0000000000000000e+00  0.0000000000000000e+00  0.0000000000000000e+00  0.0000000000000000e+00  0.0000000000000000e+00  -1.8211510068147162e-02  -1.5683403150098734e-02  -1.1509695631761527e-02  -8.1233751402371140e-03  -6.1274708912936217e-03  -5.3892156727278441e-03  -5.0217182251477560e-03  -5.6285377847665732e-03  -4.2879705038482265e-03  -4.6924617964046299e-03  -6.4074469512524889e-03  -8.6433921701704400e-03  -1.1270921433715391e-02  -1.5131821646187552e-02  -1.8010226627457680e-02  -1.8458332854676157e-02  -1.5063706189886289e-02  -1.0866978156296128e-02  -7.1241213123146747e-03  -5.9197872174871777e-03  -4.6865058747550467e-03  -4.8698263787164894e-03  -5.8307647912741352e-03  -5.1645100797214722e-03  -5.8358344371069624e-03  -5.8609271372210090e-03  -5.2794594488708210e-03  -5.9360772277005525e-03  -4.3386671233406433e-03  -6.5406948878305466e-03  -8.2220517457080155e-03  -1.1184334899504182e-02  -1.4938845722126039e-02  -1.8414765106380956e-02  -1.8500357253264509e-02  -1.5456905227774376e-02  -1.1469515192077093e-02  -7.8584935826708745e-03  -6.0988268545782770e-03  -5.4245171661495969e-03  -5.3117278812444216e-03  -4.7884763635225383e-03  -4.2854183023838975e-03  -4.7907096632394423e-03  -5.4233304523492662e-03  -7.1726507644059552e-03  -1.1444944376500484e-02  -1.5261804608997344e-02  -1.8403906019880224e-02  -1.8243410702773782e-02  -1.5048613874616895e-02  -1.1533871326750581e-02  -8.2382830642192765e-03  -6.4441759479695916e-03  -4.6247196885512770e-03  -6.1186096823175572e-03  -4.9049609809297063e-03  -5.2660644059822244e-03  -5.5583704117194589e-03  -5.5654948326292085e-03  -5.6361236855690198e-03  -4.4593519616256084e-03  -5.1318630592916649e-03  -6.1275859504350870e-03  -7.2056353362180258e-03  -1.0829057029401554e-02  -1.5087476455805516e-02  -1.8333405617424820e-02  5.9859915593658358e-02  5.7916013131458131e-02  6.0368241856174447e-02  5.7152080267302438e-02  5.3726634585581502e-02  6.3672223278373519e-02  5.9857179005751944e-02  5.5759315009968738e-02  5.4923710432043311e-02  6.4168042188580063e-02  6.8819355105612934e-02  6.8054229908207489e-02  6.5749168454431697e-02  5.6902066084069565e-02  4.4648391194576691e-02  7.5627228711282440e-02  5.0934432491666147e-02  4.9100494176018326e-02  6.8237290270012504e-02  4.8927204436607821e-02  3.8297995585108928e-02  3.9761225703922938e-02  3.6902984111908496e-02  3.6289209359092828e-02  2.3505399595332842e-02  2.6398036104796300e-02  2.4420803985058200e-02  2.3930590324443436e-02  4.9022979029785786e-02  8.6954654942072412e-02  1.1504465825384852e-01  1.9959770301936933e-01  2.7545241726547554e-01  5.6482880758664145e-01  7.2828030760471618e-01  7.8584402033232359e-01  2.7967237605824607e-01  9.5150290499932377e-01  9.8660269163212577e-01  7.3817775784095374e-01  9.2209672177587065e-01  4.9780013140121759e-01  7.2422641680037281e-01  9.8370497335490570e-01  8.1406996091978401e-01  9.7485795252291407e-01  7.7084883156245243e-01  8.6698139309481426e-01  5.1377130241015179e-01  5.5252761231818348e-01  8.4128754540919837e-01  1.0298211497158458e+00  9.0560560964605263e-01  1.0671923866004138e+00  8.8198904664328248e-01  1.0140658402451364e+00  8.3634255372701471e-01  8.8284408611348708e-01  6.2404941216231335e-01  7.7451008728361947e-01  9.4005521890426813e-01  7.4816489445571754e-01  9.2620214653299859e-01  4.3596501333222848e-01  2.5383216885321463e-01  2.9376437358003910e-01  4.1548345608373738e-01  2.4063505635142021e-01  1.4466882399618114e-01  6.3073584670073879e-01  9.1686315099466642e-01  1.3167392890384585e-01  2.0396084155388508e-01  5.2551233226520833e-01  3.8251416596930504e-01  6.4366515466489238e-01  9.5814328543993721e-01  5.9228000284711935e-01  9.0560765527622344e-01  1.1189141438270689e+00  9.5323202675981911e-01  7.7862727845040736e-01  7.7786998309756472e-01  1.0080085366580804e+00  7.7175082788907567e-01  5.6230213474048163e-01  4.4404297068225179e-01  5.9506039272246725e-01  2.0082054101674246e-01  1.5348559046970670e-01  9.6953081486082227e-02  1.0304031977523193e-01  1.1377440420692657e+00  1.3906230406738168e-01  1.6128653801547829e-01  1.1367008576607252e-01  1.4569710270136976e-01  8.7008435962038291e-02  8.3688317177918969e-02  1.2304990414017050e-01  4.9396948353679604e-01  1.3400157523666753e-01  7.9566092128970381e-02  1.8750639788953768e-01  3.2443292375525173e-01  1.7693310103335749e-01  1.6766059418239926e-01  2.3624267542170876e-01  1.3091495545680101e-01  1.0362927345460993e-01  8.6421644217388863e-02  1.3209964776067271e-01  9.4733461376037775e-02  1.4673638606051476e-01  7.0149138631587310e-02  3.0692146573342410e-01  1.2245808116820163e+00  8.4065211823845964e-02  1.2049918988816448e+00  5.3539234421773119e-01  1.5275829231577978e-01  4.2438285281977783e-01  1.6570416596252124e-01  9.1007495597188959e-02  8.1091682953580699e-02  1.4362871497656771e-01  4.6548225742429589e-01  2.0157924003199465e-01  1.0639956278924680e-01  1.0116418288819720e+00  5.7638307820376988e-02  4.7526700113227578e-02  4.0749626086702967e-01  1.6092604152995540e-01  1.8481772119844153e-01  3.1011615945388477e-01  1.9455790627036876e-01  1.0791102182174457e-01  1.6124637077877566e-01  9.9972793661779566e-02  7.9826122462762189e-02  6.0725545717306324e-02  3.5162251389021515e-02  4.9817966980508187e-02  9.0232296754812605e-02  6.5149544533576978e-02  6.5449304030255437e-02  6.3329641705271666e-02  3.2694373210390440e-02  3.4942800273973208e-02  6.8110329731822281e-02  1.3846368041713902e-01  3.8043391430862245e-01  4.9866969462758384e-02  6.5359029282586897e-02  7.3454651156947867e-02  4.9658202906604082e-02  7.6954893170080557e-02  6.9561679683080732e-02  6.2261662028472456e-02  3.6861178704248793e-02  5.4676238544403885e-02  6.4181069452764375e-02  5.5147632333983211e-02  8.1759372884136247e-02  6.6247233728999474e-02  1.2020467864911730e-01  6.6508062369717721e-02  5.8383736938247603e-02  3.7062588205767022e-02  3.3605673252235360e-02  7.9731705531327773e-02  2.1326615120561951e-01  5.9673232847431042e-02  6.4622374537771449e-02  8.7678523447773452e-02  2.3947464097597668e-02  2.4404268604520780e-02  2.3435532134308507e-02  2.4693285396111715e-02  5.7774365800343008e-02  1.1084825311536433e+00  1.2712747873580474e+00  9.7988773735835435e-02  5.5860845681649583e-02  5.1935201473005857e-02  5.2086176626891169e-02  3.5186479653356015e-02  6.3717817612456401e-02  8.3407919268460001e-02  1.6984893515779545e-01  2.1620530656803377e-01  6.6246340816771276e-02  1.7675715716919246e-01  1.1492858281229763e+00  1.1839745118140708e+00  8.4400411291657229e-01  1.2752412870828081e-01  8.3132804023653320e-02  1.4765745685007234e-01  1.2637698459507404e-01  1.5125515224524771e-01  5.5211703701759783e-02  5.3642911402104997e-02  1.1509305570805219e+00  4.7865548217976062e-02  1.3527403302305391e-01  1.1880100690984824e-01  5.1147866092717931e-01  7.0007333146119496e-02  4.5779104226746692e-01  8.6871277353497445e-01  5.3233786572321806e-02  1.2946570858339415e+00  6.2739683172419169e-01  2.7847021947823538e-02  3.8517089303818230e-01  1.3372028229508182e-01  1.2328243622610036e-01  1.1401685328744091e+00  5.5570090171819915e-02  1.0434953923063311e-01  1.3493077673025497e-01  1.3079519880876469e+00  8.7900605503110477e-02  1.7845162571331524e-01  1.2742025895327471e+00  2.9764561634978937e-01  1.4991159850082214e-01  1.3021928273648551e+00  5.4936629566474671e-01  7.8338323576448571e-02  9.3088053465535128e-02  2.2943543650208359e-01  7.0897525611474344e-01  1.2913795359606012e-01  4.7586616121604246e-02  4.1818637751260118e-01  2.4398694611830335e-02  2.4704137568484504e-02  2.3820877001717020e-02  2.4779331528389327e-02  9.0018672361152019e-02  5.3320064037284176e-02  7.4267728007497300e-02  5.9035476645650002e-02  1.2617403377779610e-01  6.9815349427622675e-01  6.2417748908303622e-02  7.6934881193299970e-02  2.4479016466813983e-01  8.2959898564026224e-01  6.5766694221768351e-01  8.5583726104680025e-01  7.2574809377427885e-02  8.3125324415284496e-01  1.4212098946304574e-01  6.8569098914253523e-01  1.3028367206881299e+00  1.4505785684843264e-01  5.3970965093772483e-01  2.6036343207127260e-01  1.3222582849892969e-01  3.4754042695228038e-01  8.1054762316260887e-01  1.1824485706527892e+00  3.6207071060972033e-02  -1.6502991203341512e-02  -1.6348006318341161e-02  -1.7748714688562636e-02  -2.1577484325699392e-02  -1.7742972420116489e-02  -2.1908035361849713e-02  -1.6530340085888780e-02  -1.7422007814804748e-02  -1.6640561146457060e-02  -1.7653946569525580e-02  -2.1731138602789843e-02  -2.1736818171839003e-02  -1.3727780171127009e-02  -1.3128664746971629e-02  -1.4300469403461611e-02  -1.3414812639856749e-02  -1.6447316080189893e-02  -2.1403316390755163e-02  -2.1435248772752411e-02  -1.6292629168847994e-02  -2.4478266043980578e-02  -2.5971564586449395e-02  -1.6893315858819348e-02  -1.6999539153065457e-02  -2.3172628051245300e-02  -2.5930355824689770e-02  -2.6669926929408790e-02  -2.6668038251853252e-02  -2.7111724865167396e-02  -2.7127783234330270e-02  -1.4738780820000963e-02  -1.4398511483453455e-02  -1.4722814604159295e-02  -1.4365246238752124e-02  -1.4474761909501564e-02  -1.4398857872415644e-02  -1.4536213284887725e-02  -2.7089064508104336e-02  -2.7159581449484004e-02  -2.6486126209328345e-02  -2.5808248173181784e-02  -1.5247923067329498e-02  -1.4943405536758627e-02  -1.4824386536382784e-02  -1.4656402267930902e-02  -1.4941508470542672e-02  -1.4663454157376311e-02  -1.5669512940729696e-02  -1.4275351164515749e-02  -2.5846044096412075e-02  -2.5313711124536994e-02  -1.4692133219053894e-02  -1.4320184365857025e-02  -1.4721051843854922e-02  -2.4693754811383369e-02  -2.6019284304613654e-02  -2.6335781563434982e-02  -2.6910025246979850e-02  -2.7075941734380753e-02  -2.7251448885017914e-02  -2.7032110125208481e-02  -2.7142962953745669e-02  -2.7027148523266424e-02  -2.6699715724597520e-02  -2.4565351172507646e-02  -2.5988596374204000e-02  -2.6225608316498731e-02  -2.6805003207775336e-02  -2.6438370819237552e-02  -2.6960836994738419e-02  -2.7145976070388073e-02  -2.7042235718183719e-02  -2.6911398440268179e-02  -2.6615934322807691e-02  -1.9272841331470475e-02  -2.4506486092826962e-02  -2.6006920043216659e-02  -2.5961417950835477e-02  -2.6712406911472371e-02  -2.6701757570153584e-02  -2.7141406698702672e-02  -2.7175954101447308e-02  -2.7135676720634626e-02  -2.7142612636338385e-02  -1.5473017800364714e-02  -1.6149023394678327e-02  -1.8221021928949852e-02  -1.8171930932095490e-02  -2.6864551537018035e-02  -2.6391847957116705e-02  -2.6301431000422360e-02  -2.6435162243217583e-02  -2.6527910254324525e-02  -2.6558533036435798e-02  -1.4333385537820905e-02  -2.6181421525756324e-02  -2.6892424638688454e-02  -2.6366954175670736e-02  -2.6132888674372835e-02  -2.6699031883060623e-02  -2.6790360731007667e-02  -1.9076203067729676e-02  -2.4784511805332362e-02  -2.4960469646262633e-02  -1.2377339535015705e-02  -1.2081002027201667e-02  -1.2313217115438493e-02  -2.4776236392083335e-02  -2.4847267353489869e-02  -2.4223436575535520e-02  -2.3885955866513740e-02  -2.5415147601890294e-02  -2.6049575334895977e-02  -2.5309648113081281e-02  -2.5896073135391735e-02  -2.4629917617949994e-02  -2.5723366777080800e-02  -2.4195616678660287e-02  -2.4905947723662905e-02  -2.3598464423408082e-02  -2.3838906399598767e-02  -2.4801771290962876e-02  -2.5798358169616585e-02  -2.4287303141408458e-02  -2.4875088496482404e-02  -2.3650432087437469e-02  -2.3957896520573129e-02  -2.3006280890680367e-02  -2.3198841161212624e-02  -2.2491997278475985e-02  -2.2709976864479064e-02  -2.2146124884609941e-02  -2.2507867589870501e-02  -2.2033933291238289e-02  -2.2594704398348413e-02  -2.2899321917503147e-02  -2.3067248997922417e-02  -2.2361839313803814e-02  -2.2574266526336088e-02  -2.2007708998824271e-02  -2.2368557230423067e-02  -2.1885639484971652e-02  -2.2458127288323391e-02  -2.4623075442580876e-02  -2.4630048084498628e-02  -2.6476033725085793e-02  -2.6374874041021457e-02  -2.4563117100886982e-02  -2.4399359856660689e-02  -2.2226981939295412e-02  -2.2980928607455674e-02  -2.2550469977329925e-02  -2.3597863798006640e-02  -2.2956512311638054e-02  -2.2081398278630038e-02  -2.2841015001785359e-02  -2.2401982137296786e-02  -2.3464833608589870e-02  -2.2823401590265056e-02  -2.6644244761088655e-02  -2.5254779726760407e-02  -2.4900960678140245e-02  -2.2964884856426334e-02  -2.3651425961694904e-02  -2.3078234200891251e-02  -2.3751197242236458e-02  -2.2151504957720482e-02  -2.2569520892506991e-02  -2.2296590622325776e-02  -2.2750370461731170e-02  -2.2507693313230527e-02  -2.0564733930859194e-02  -2.2618931783151275e-02  -2.4006308690576798e-02  -2.2982895815311499e-02  -2.2193662914984244e-02  -2.0415951295132816e-02  -2.4046696109151007e-02  -2.2649555845427945e-02  -2.3791539704064321e-02  -2.1951140955469198e-02  -2.3927651930962870e-02  -2.1905195032472621e-02  -2.1830812871534294e-02  -2.1548844241299967e-02  -2.3553169698060060e-02  -2.1492249061063853e-02  -2.3578169369910962e-02  -1.8592794559293871e-02  -2.6049949037725419e-02  -9.6080286244196126e-03  -2.4838902827736251e-02  -2.6161211649675067e-02  -2.1398481788523604e-02  -2.1270760513348752e-02  -2.2750437034572274e-02  -2.1501493755079402e-02  -2.5415528803612943e-02  -2.5274439527228104e-02  -2.4952084344330310e-02  -2.5848139900212789e-02  -2.5049281323702176e-02  -2.5377501482368430e-02  -2.4603515666867783e-02  -2.4057488741739255e-02  -2.3550506550895557e-02  -2.4897252612803487e-02  -2.3608978127554602e-02  -2.2951346777001804e-02  -2.2639162571885436e-02  -2.2378494010180383e-02  -2.2059686541066794e-02  -2.2072647617426774e-02  -2.1754222685464897e-02  -2.3051833460167179e-02  -2.2898130832393036e-02  -2.1566252406894817e-02  -2.3574100266237838e-02  -2.3055967355174595e-02  -2.2340541794366453e-02  -1.8979462761487362e-02  -2.2039945480610373e-02  -2.1684684749422901e-02  -2.2044362847149883e-02  -2.1265748885432038e-02  -9.1396243480362203e-03  -9.9055572399570427e-03  -9.4318628430040009e-03  -2.5651235578485348e-02  -2.3846979264684383e-02  -2.6217867497134877e-02  -2.4145210440025808e-02  -2.5336669653428880e-02  -1.9162476076480094e-02  -1.9877801141904728e-02  -2.0048225386262934e-02  -2.2994454201472687e-02  -2.4189594628917423e-02  -2.5004534215527417e-02  -2.4059264989448100e-02  -2.2931104492025834e-02  -2.3093910506582858e-02  -2.3070911140723696e-02  -2.2433543010080794e-02  -2.2414231418408849e-02  -2.2177422455269828e-02  -2.1567388437491727e-02  -2.2033840860975710e-02  -2.1658875663782294e-02  -2.1927236502781215e-02  -2.1989629211091107e-02  -2.2418153337885501e-02  -2.1985228587081920e-02  -2.3019655912863961e-02  -2.2723757257326716e-02  -2.3661781251564921e-02  -2.3375783264515657e-02  -2.4617637201914393e-02  -2.3476622311834894e-02  -2.5271598532621509e-02  -2.3019297159793263e-02  -2.4809288471325911e-02  -2.2372709986154069e-02  -2.3409513781458724e-02  -2.1742329135051447e-02  -2.5426172569963896e-02  -2.4932657864812753e-02  -2.1400193159971038e-02  -2.0057782184446597e-02  -2.2446558029052325e-02  -2.1829090734170335e-02  -2.5482809484618910e-02  -2.1502281798171461e-02  -2.4588835410123161e-02  -2.0968171974966560e-02  -2.0373085134074476e-02  -2.2422339158172901e-02  -2.5404056459349740e-02  -2.0559818575834041e-02  -2.3842500566610601e-02  -2.1017892060031049e-02  -2.0636340645789265e-02  -2.0958016347175243e-02  -2.0471989325695609e-02  -2.3095229973536281e-02  -2.1733181083883845e-02  -2.1958852440234804e-02  -2.1285936773987109e-02  -2.2906216191495795e-02  -2.3699911104359983e-02  -2.0444748763893308e-02  -2.1210875801770241e-02  -1.7110655332471365e-02  -2.0638980566066948e-02  -2.1822979502682398e-02  -2.4468453483985571e-02  -2.2270391731436426e-02  -2.1280423888450056e-02  -1.7102