<?xml version="1.0"?>
<VTKFile type="UnstructuredGrid"  version="0.1"  >
<UnstructuredGrid>
<Piece  NumberOfPoints="1297" NumberOfCells="2496">
<Points>
<DataArray  type="Float64"  NumberOfComponents="3"  format="ascii">0 0 0  0 1 0  1 1 0  1 0 0  1.1 -0.1 0  -0.1 -0.1 0  1.1 1.1 0  -0.1 1.1 0  0.3009987009842606 0.6679997061140657 0  0.3016240051305838 0.3325737240059643 0  0.6987558069154663 0.3319586916986157 0  0.698731242626183 0.6680749435070581 0  0.500090706212157 0.5001470183068878 0  0 0.9499999999997918 0  0 0.8999999999995836 0  0 0.8499999999996529 0  0 0.7999999999999998 0  0 0.7500000000003466 0  0 0.7000000000006934 0  0 0.6500000000010401 0  0 0.6000000000013869 0  0 0.5500000000017335 0  0 0.5000000000020587 0  0 0.4500000000018723 0  0 0.4000000000016644 0  0 0.3500000000014564 0  0 0.3000000000012483 0  0 0.2500000000010403 0  0 0.2000000000008322 0  0 0.1500000000006241 0  0 0.100000000000416 0  0 0.05000000000020799 0  0.04999999999989965 0 0  0.09999999999981467 0 0  0.1499999999997036 0 0  0.1999999999995579 0 0  0.2499999999994121 0 0  0.2999999999992664 0 0  0.3499999999991206 0 0  0.3999999999989749 0 0  0.4499999999988292 0 0  0.4999999999986943 0 0  0.5499999999988151 0 0  0.5999999999989468 0 0  0.6499999999990784 0 0  0.69999999999921 0 0  0.7499999999993417 0 0  0.7999999999994734 0 0  0.8499999999996051 0 0  0.8999999999997368 0 0  0.9499999999998684 0 0  1 0.04999999999989965 0  1 0.09999999999981467 0  1 0.1499999999997036 0  1 0.1999999999995579 0  1 0.2499999999994121 0  1 0.2999999999992664 0  1 0.3499999999991206 0  1 0.3999999999989749 0  1 0.4499999999988292 0  1 0.4999999999986943 0  1 0.5499999999988151 0  1 0.5999999999989468 0  1 0.6499999999990784 0  1 0.69999999999921 0  1 0.7499999999993417 0  1 0.7999999999994734 0  1 0.8499999999996051 0  1 0.8999999999997368 0  1 0.9499999999998684 0  0.9499999999997918 1 0  0.8999999999995836 1 0  0.8499999999996529 1 0  0.7999999999999998 1 0  0.7500000000003466 1 0  0.7000000000006934 1 0  0.6500000000010401 1 0  0.6000000000013869 1 0  0.5500000000017335 1 0  0.5000000000020587 1 0  0.4500000000018723 1 0  0.4000000000016644 1 0  0.3500000000014564 1 0  0.3000000000012483 1 0  0.2500000000010403 1 0  0.2000000000008322 1 0  0.1500000000006241 1 0  0.100000000000416 1 0  0.05000000000020799 1 0  -0.1 1.05000000000004 0  -0.1 1.000000000000079 0  -0.1 0.9500000000001624 0  -0.1 0.9000000000003032 0  -0.1 0.850000000000444 0  -0.1 0.8000000000005848 0  -0.1 0.7500000000007256 0  -0.1 0.7000000000008665 0  -0.1 0.6500000000010508 0  -0.1 0.6000000000012352 0  -0.1 0.5500000000014196 0  -0.1 0.500000000001539 0  -0.1 0.4500000000014195 0  -0.1 0.4000000000013 0  -0.1 0.3500000000011588 0  -0.1 0.3000000000010178 0  -0.1 0.2500000000008986 0  -0.1 0.2000000000007579 0  -0.1 0.1500000000006174 0  -0.1 0.1000000000005272 0  -0.1 0.05000000000040083 0  -0.1 2.671196597248127e-13 0  -0.1 -0.0499999999998666 0  -0.0500000000000906 -0.1 0  -1.730560139634463e-13 -0.1 0  0.04999999999975802 -0.1 0  0.09999999999961506 -0.1 0  0.1499999999994613 -0.1 0  0.199999999999302 -0.1 0  0.2499999999991446 -0.1 0  0.2999999999990088 -0.1 0  0.3499999999988296 -0.1 0  0.3999999999986936 -0.1 0  0.4499999999985143 -0.1 0  0.4999999999984002 -0.1 0  0.5499999999985247 -0.1 0  0.5999999999986493 -0.1 0  0.6499999999987955 -0.1 0  0.6999999999989417 -0.1 0  0.7499999999990659 -0.1 0  0.7999999999992116 -0.1 0  0.8499999999993573 -0.1 0  0.8999999999994526 -0.1 0  0.949999999999584 -0.1 0  0.9999999999997226 -0.1 0  1.049999999999861 -0.1 0  1.1 -0.0500000000000906 0  1.1 -1.730560139634463e-13 0  1.1 0.04999999999975802 0  1.1 0.09999999999961506 0  1.1 0.1499999999994613 0  1.1 0.199999999999302 0  1.1 0.2499999999991446 0  1.1 0.2999999999990088 0  1.1 0.3499999999988296 0  1.1 0.3999999999986936 0  1.1 0.4499999999985143 0  1.1 0.4999999999984002 0  1.1 0.5499999999985247 0  1.1 0.5999999999986493 0  1.1 0.6499999999987955 0  1.1 0.6999999999989417 0  1.1 0.7499999999990659 0  1.1 0.7999999999992116 0  1.1 0.8499999999993573 0  1.1 0.8999999999994526 0  1.1 0.949999999999584 0  1.1 0.9999999999997226 0  1.1 1.049999999999861 0  1.05000000000004 1.1 0  1.000000000000079 1.1 0  0.9500000000001624 1.1 0  0.9000000000003032 1.1 0  0.850000000000444 1.1 0  0.8000000000005848 1.1 0  0.7500000000007256 1.1 0  0.7000000000008665 1.1 0  0.6500000000010508 1.1 0  0.6000000000012352 1.1 0  0.5500000000014196 1.1 0  0.500000000001539 1.1 0  0.4500000000014195 1.1 0  0.4000000000013 1.1 0  0.3500000000011588 1.1 0  0.3000000000010178 1.1 0  0.2500000000008986 1.1 0  0.2000000000007579 1.1 0  0.1500000000006174 1.1 0  0.1000000000005272 1.1 0  0.05000000000040083 1.1 0  2.671196597248127e-13 1.1 0  -0.0499999999998666 1.1 0  0.2928248268046781 0.6551944037164602 0  0.2850134947554619 0.6372201981051365 0  0.2778989235721078 0.6160760810867006 0  0.2710666023040591 0.5926687408778272 0  0.2647738878620327 0.5687961761776222 0  0.2597639953046887 0.5455555050235675 0  0.2567729900271249 0.52283817028763 0  0.2558656661570393 0.5004318676238086 0  0.2570778439353795 0.4778908923072886 0  0.2604451989580301 0.4549807973233082 0  0.2656214900702265 0.4315322627493373 0  0.2718861035730251 0.4076516640763088 0  0.2786404635016191 0.3844136649935819 0  0.2857478282864531 0.3633054982819584 0  0.2935572692160158 0.3453600252878036 0  0.3131788651367884 0.3227302943126879 0  0.3293708690740226 0.3124805767799027 0  0.3488776291759599 0.3019725473044182 0  0.3701474026593073 0.2909688687582748 0  0.3916343013273295 0.2802101239424824 0  0.4126741762363234 0.2707081764673567 0  0.4337709244817747 0.2629926709553785 0  0.4551911495458264 0.2572367696090871 0  0.4772946475152685 0.2533911931732968 0  0.4998739056221875 0.2518591734639285 0  0.5224459957872435 0.2528799286644886 0  0.5445962588600081 0.2564832116748951 0  0.5657623929918442 0.2624204349537543 0  0.58684427347234 0.2700293335590584 0  0.6078258131818857 0.2794990747161695 0  0.6294137676675154 0.2901912664252332 0  0.6510574401690277 0.3011993813173095 0  0.6707557405819717 0.3117228877411433 0  0.6870359992660079 0.3220464436880086 0  0.7069839701321291 0.3450795024500563 0  0.7148102057957003 0.3630312228757118 0  0.7220093848491862 0.384383463086041 0  0.728866455807912 0.4077359438797984 0  0.7351924614066691 0.431570063220918 0  0.7403198583984322 0.4549700223342136 0  0.7436474774777997 0.4778274375477136 0  0.7449110770536453 0.5004728404308393 0  0.7439196040452077 0.5231855469223549 0  0.7404950417039181 0.5460188813365989 0  0.7351890055429794 0.5693641130736015 0  0.7287335949377266 0.5931290027397514 0  0.7219380216579335 0.6161666712562849 0  0.714802863835536 0.6372474749405891 0  0.7069702673417155 0.6550388825710707 0  0.6870243201821364 0.6779121770093246 0  0.6706950532490313 0.68816594776648 0  0.6509162703987954 0.6987254302998139 0  0.6293040631412387 0.7097515871151047 0  0.6078163246545291 0.7206209086000004 0  0.5869649587407877 0.7303839973326788 0  0.5659182243789976 0.7383004633270783 0  0.5446725399786081 0.7444370063300517 0  0.5225082332562163 0.748265159150845 0  0.4999101097593552 0.7495613873691694 0  0.4773529032327614 0.748270578348826 0  0.455308117613441 0.7444783630551678 0  0.4338793013726026 0.7384772783606744 0  0.4130335917862631 0.7303493453588265 0  0.3921304515263415 0.7205213932049714 0  0.3701931828084465 0.7095320650986361 0  0.3485122682466137 0.6985155934705942 0  0.3288863192789414 0.6880866616106039 0  0.3126281103237919 0.6778558602777611 0  0.3802775807815478 0.311557982968114 0  0.2843541070170847 0.4420208526414878 0  0.3803349169231911 0.688953224256155 0  0.2837911702803436 0.5584595235858699 0  0.7130424103098325 0.5818343499843551 0  0.5979978984496656 0.6981145405182999 0  0.6185145918684533 0.3102263773393277 0  0.7176932505450418 0.4413778901375381 0  0.7226083013925191 0.5114583994116461 0  0.5546285258448477 0.2888992298472475 0  0.4452212143419516 0.2919419030503454 0  0.4441609987494153 0.7092285734564194 0  0.5335126062341583 0.7138599973695379 0  0.2787630726872316 0.488760688202484 0  0.2932317135873529 0.3948271738938371 0  0.4886731470516614 0.2894478941374996 0  0.2974603119873044 0.604060546044637 0  0.701908752226395 0.3926131292018696 0  0.4887819264734833 0.7158485471957806 0  0.6407477898743315 0.6810038340343247 0  0.338529802358639 0.3302990660058217 0  0.6618648106197728 0.3311526738782507 0  0.3387625523180205 0.6725269921090884 0  0.6988507534786723 0.6293553966807769 0  0.3059263397337822 0.3524314892524637 0  0.307157681016448 0.6470848068002637 0  0.6796236649726247 0.6650823007531833 0  0.6949641359759098 0.3516603398882452 0  0.3590197029252238 0.6806003383244078 0  0.36854527822801 0.6616650064886115 0  0.38961329407669 0.6672404569641102 0  0.3765461482342842 0.6406167917941522 0  0.3987462866714813 0.6436153110363898 0  0.384429718890333 0.6152845463206918 0  0.4121784309998221 0.6159520846437165 0  0.394755101058724 0.584851511206082 0  0.3579482392017466 0.6120727464164961 0  0.4294749755326904 0.5851022554907644 0  0.4074267793330885 0.5493642816375354 0  0.3676846753932751 0.5543306820156647 0  0.3834212702430732 0.5147215059332473 0  0.3461298973932683 0.5166572204760487 0  0.3591686992195759 0.4816486228266844 0  0.3986185244066021 0.475997934240531 0  0.3786127982585586 0.442943516987328 0  0.415302288019739 0.4371201086691118 0  0.3963140611383364 0.4063805568671851 0  0.4301884964375224 0.3956648985510755 0  0.3625077651547983 0.4082562409488197 0  0.4064871986324106 0.3730675881824718 0  0.439611305931252 0.6168514058240891 0  0.4652070878007077 0.5919146800875112 0  0.4838642056735082 0.6158495718192353 0  0.5022039008644623 0.5930719692448196 0  0.5196793431040693 0.6162449933662788 0  0.5383122431528837 0.593885135468705 0  0.5553452220655986 0.6183060963060895 0  0.5744381211901171 0.5956376051903217 0  0.5913764185509763 0.6236627602897885 0  0.610211570632737 0.5903474446186292 0  0.5958481159975159 0.5
[...]
<PointData  Scalars="state"> 
<DataArray  type="Float64"  Name="state"  format="ascii">0.0000000000000000e+00  0.0000000000000000e+00  0.0000000000000000e+00  0.0000000000000000e+00  0.0000000000000000e+00  0.0000000000000000e+00  0.0000000000000000e+00  0.0000000000000000e+00  -1.9287754927595924e-02  -1.9336935206258978e-02  -1.9410679418712006e-02  -1.9322309322753955e-02  1.3477679104063189e+00  0.0000000000000000e+00  0.0000000000000000e+00  0.0000000000000000e+00  0.0000000000000000e+00  0.0000000000000000e+00  0.0000000000000000e+00  0.0000000000000000e+00  0.0000000000000000e+00  0.0000000000000000e+00  0.0000000000000000e+00  0.0000000000000000e+00  0.0000000000000000e+00  0.0000000000000000e+00  0.0000000000000000e+00  0.0000000000000000e+00  0.0000000000000000e+00  0.0000000000000000e+00  0.0000000000000000e+00  0.0000000000000000e+00  0.0000000000000000e+00  0.0000000000000000e+00  0.0000000000000000e+00  0.0000000000000000e+00  0.0000000000000000e+00  0.0000000000000000e+00  0.0000000000000000e+00  0.0000000000000000e+00  0.0000000000000000e+00  0.0000000000000000e+00  0.0000000000000000e+00  0.0000000000000000e+00  0.0000000000000000e+00  0.0000000000000000e+00  0.0000000000000000e+00  0.0000000000000000e+00  0.0000000000000000e+00  0.0000000000000000e+00  0.0000000000000000e+00  0.0000000000000000e+00  0.0000000000000000e+00  0.0000000000000000e+00  0.0000000000000000e+00  0.0000000000000000e+00  0.0000000000000000e+00  0.0000000000000000e+00  0.0000000000000000e+00  0.0000000000000000e+00  0.0000000000000000e+00  0.0000000000000000e+00  0.0000000000000000e+00  0.0000000000000000e+00  0.0000000000000000e+00  0.0000000000000000e+00  0.0000000000000000e+00  0.0000000000000000e+00  0.0000000000000000e+00  0.0000000000000000e+00  0.0000000000000000e+00  0.0000000000000000e+00  0.0000000000000000e+00  0.0000000000000000e+00  0.0000000000000000e+00  0.0000000000000000e+00  0.0000000000000000e+00  0.0000000000000000e+00  0.0000000000000000e+00  0.0000000000000000e+00  0.0000000000000000e+00  0.0000000000000000e+00  0.0000000000000000e+00  0.0000000000000000e+00  0.0000000000000000e+00  0.0000000000000000e+00  0.0000000000000000e+00  0.0000000000000000e+00  0.0000000000000000e+00  0.0000000000000000e+00  0.0000000000000000e+00  0.0000000000000000e+00  0.0000000000000000e+00  0.0000000000000000e+00  0.0000000000000000e+00  0.0000000000000000e+00  0.0000000000000000e+00  0.0000000000000000e+00  0.0000000000000000e+00  0.0000000000000000e+00  0.0000000000000000e+00  0.0000000000000000e+00  0.0000000000000000e+00  0.0000000000000000e+00  0.0000000000000000e+00  0.0000000000000000e+00  0.0000000000000000e+00  0.0000000000000000e+00  0.0000000000000000e+00  0.0000000000000000e+00  0.0000000000000000e+00  0.0000000000000000e+00  0.0000000000000000e+00  0.0000000000000000e+00  0.0000000000000000e+00  0.0000000000000000e+00  0.0000000000000000e+00  0.0000000000000000e+00  0.0000000000000000e+00  0.0000000000000000e+00  0.0000000000000000e+00  0.0000000000000000e+00  0.0000000000000000e+00  0.0000000000000000e+00  0.0000000000000000e+00  0.0000000000000000e+00  0.0000000000000000e+00  0.0000000000000000e+00  0.0000000000000000e+00  0.0000000000000000e+00  0.0000000000000000e+00  0.0000000000000000e+00  0.0000000000000000e+00  0.0000000000000000e+00  0.0000000000000000e+00  0.0000000000000000e+00  0.0000000000000000e+00  0.0000000000000000e+00  0.0000000000000000e+00  0.0000000000000000e+00  0.0000000000000000e+00  0.0000000000000000e+00  0.0000000000000000e+00  0.0000000000000000e+00  0.0000000000000000e+00  0.0000000000000000e+00  0.0000000000000000e+00  0.0000000000000000e+00  0.0000000000000000e+00  0.0000000000000000e+00  0.0000000000000000e+00  0.0000000000000000e+00  0.0000000000000000e+00  0.0000000000000000e+00  0.0000000000000000e+00  0.0000000000000000e+00  0.0000000000000000e+00  0.0000000000000000e+00  0.0000000000000000e+00  0.0000000000000000e+00  0.0000000000000000e+00  0.0000000000000000e+00  0.0000000000000000e+00  0.0000000000000000e+00  0.0000000000000000e+00  0.0000000000000000e+00  0.0000000000000000e+00  0.0000000000000000e+00  0.0000000000000000e+00  0.0000000000000000e+00  0.0000000000000000e+00  0.0000000000000000e+00  0.0000000000000000e+00  0.0000000000000000e+00  0.0000000000000000e+00  0.0000000000000000e+00  0.0000000000000000e+00  0.0000000000000000e+00  0.0000000000000000e+00  0.0000000000000000e+00  0.0000000000000000e+00  -1.6570881145121921e-02  -1.4726387918298474e-02  -1.1419641454971272e-02  -9.2660019427546463e-03  -8.1536713952095278e-03  -7.7661500047396751e-03  -7.4560821176944637e-03  -8.1128574291241245e-03  -6.7510887515209606e-03  -7.1812837117614207e-03  -8.4074060462247299e-03  -9.7358031384520548e-03  -1.1187473238719355e-02  -1.4058605259721198e-02  -1.6179344863189775e-02  -1.6740768755999794e-02  -1.4079828763492926e-02  -1.0919424057392536e-02  -8.5042829965036922e-03  -7.8227245069207724e-03  -6.5030888013623955e-03  -6.4290523437144980e-03  -7.0121000503611825e-03  -6.1302773891971406e-03  -6.7830669496747025e-03  -6.8393955015686363e-03  -6.4332022055771081e-03  -7.4782951247113023e-03  -6.0758994936534064e-03  -8.3761056557273422e-03  -9.4532933886029378e-03  -1.1177171629283229e-02  -1.3896540177037184e-02  -1.6680081479206094e-02  -1.6827819869270382e-02  -1.4432422973291897e-02  -1.1418294484254249e-02  -9.0286704987818569e-03  -8.1314883237607622e-03  -7.8340572461381482e-03  -7.8204303581844697e-03  -7.2005960834224244e-03  -6.7193122372723336e-03  -7.2259052285109432e-03  -7.5995466179569222e-03  -8.4263783175775545e-03  -1.1396216001546326e-02  -1.4287212668297789e-02  -1.6700724762202364e-02  -1.6563904151246939e-02  -1.4046689457824559e-02  -1.1480400246977230e-02  -9.4398916514840184e-03  -8.3421519730107647e-03  -6.4801918304946181e-03  -7.7356895226867416e-03  -6.1509547949611595e-03  -6.2469818933713044e-03  -6.4362141183779446e-03  -6.5616847426959368e-03  -6.8666174293000462e-03  -5.9202196998537036e-03  -6.8857288132905675e-03  -7.9171769021755874e-03  -8.4456264317726900e-03  -1.0821368671804055e-02  -1.4008836596552441e-02  -1.6657864635822729e-02  5.6373569209878988e-02  5.4090618671388563e-02  5.6968707249130945e-02  5.3465719773212260e-02  5.0357973170457024e-02  5.9923243246876756e-02  5.6329825409997279e-02  5.2102955898826291e-02  5.1027578646415703e-02  6.2094923860577390e-02  6.6107198339334261e-02  6.5868558758257673e-02  6.4123469837783595e-02  5.2951073003556233e-02  4.4273328869635996e-02  7.4413791066732474e-02  5.0406997774240639e-02  4.8931944124407864e-02  6.7236509851913762e-02  4.8695171194509793e-02  4.1045323394724595e-02  4.2574657130403426e-02  3.9446180989655320e-02  3.9044932721435409e-02  2.7731000451685379e-02  3.0625915349772485e-02  2.8746839302218281e-02  2.8178842518117014e-02  4.8669539860513172e-02  8.3638804876169801e-02  1.0968841274681931e-01  1.7971818956518276e-01  2.6279995545545926e-01  5.1274514153002104e-01  7.2698763616539974e-01  7.9084341494819621e-01  2.3212562189079733e-01  9.4354664530141874e-01  9.8017244594423192e-01  7.4123094550610813e-01  9.0973719102176698e-01  5.3282218640226942e-01  7.3981521960553631e-01  9.7789695794487519e-01  8.1243016869799034e-01  9.6749855814271413e-01  7.7973193724462386e-01  8.5866230200936189e-01  4.6536091732404811e-01  5.4560678681098662e-01  8.3651036503122445e-01  1.0265766276455881e+00  9.0130586395408330e-01  1.0671599041545574e+00  8.7870231106823238e-01  1.0101984655407441e+00  8.2955631844915445e-01  8.7614680716173265e-01  6.1733743723908074e-01  7.7813829737089457e-01  9.3374321009556416e-01  7.5030178222327182e-01  9.1671388890154715e-01  3.9693032129713796e-01  2.5828225748781836e-01  2.9204611198562014e-01  4.3431805485227531e-01  2.4584620893972828e-01  1.4314363416477244e-01  6.4233763100536012e-01  9.0888073538954506e-01  1.2769748803223729e-01  2.0281953455193480e-01  5.4761922373921290e-01  4.0164425106613844e-01  6.5702006856710660e-01  9.5289400940115943e-01  6.0732009733883929e-01  8.9795396434614305e-01  1.1179430078949142e+00  9.4725217226298419e-01  7.7467810598138975e-01  7.7796975768099330e-01  9.9976661232463548e-01  7.7975393278900829e-01  4.9951844276526658e-01  3.9567250324886771e-01  6.0001459616780162e-01  1.7543393944850055e-01  1.4341139406140185e-01  9.7447218932130042e-02  1.0291895330982660e-01  1.1367232333449488e+00  1.3133466325963838e-01  1.4840227939582409e-01  1.0946384070272053e-01  1.4394479547707700e-01  8.5474884045853614e-02  8.4798909109962031e-02  1.2046720716673676e-01  5.1271657666371973e-01  1.3645554022228781e-01  7.6525139785735635e-02  1.9281735820236026e-01  3.3578967334514359e-01  1.6464852692560952e-01  1.5295300632452369e-01  2.4598311912919757e-01  1.2683799569150345e-01  1.0035434850146503e-01  8.7271557977795677e-02  1.2838039621680697e-01  9.1278222689892566e-02  1.4162979252269958e-01  6.6702860212079801e-02  2.9497853737013019e-01  1.2198201126951482e+00  8.0620350174186325e-02  1.2013914552779634e+00  5.6844012002692224e-01  1.5336795690081273e-01  4.6002816695497217e-01  1.6475914603698458e-01  8.8752497137037895e-02  7.8295843197146733e-02  1.4095370892245992e-01  4.0709183594636994e-01  1.9338427728377117e-01  1.0391599197485643e-01  1.0121219951630969e+00  5.9506462963703467e-02  4.9477953744132594e-02  3.4273115214806993e-01  1.5138338658212799e-01  1.6630011700247779e-01  2.9848544990415299e-01  1.9172844378794485e-01  1.0242995937666884e-01  1.5245860609930675e-01  1.0141695817771672e-01  7.6144112031917038e-02  6.1957638623794567e-02  3.8855097893736937e-02  4.9305285539232788e-02  8.8023699665705363e-02  6.1455567241313507e-02  6.4011661207068263e-02  6.3921463415077762e-02  3.6298919083151422e-02  3.7482650498222900e-02  6.4901813468709879e-02  1.3562903631117912e-01  3.8002620665916870e-01  4.9453390950825682e-02  6.1575600437587301e-02  7.0162494819304283e-02  4.8874696466848069e-02  7.3642813538666349e-02  6.7736659089349976e-02  5.8486916406906134e-02  3.9224138445178316e-02  5.5478724629206340e-02  6.2843315226816562e-02  5.2016446834366174e-02  7.8224900892793853e-02  6.2867807705388454e-02  1.1637217089662476e-01  6.4304124467560758e-02  5.5260088687129887e-02  3.9817614055419059e-02  3.7420234389770768e-02  7.6394592785138576e-02  2.2314024148112691e-01  6.0748259808734779e-02  6.0819185742456906e-02  8.3751373105396973e-02  2.8194060667685039e-02  2.8595351616728805e-02  2.7658161777064604e-02  2.8902362510617102e-02  5.4023848176212426e-02  1.1044786431820361e+00  1.2671148532142009e+00  9.5615294005341453e-02  5.2601659153144090e-02  4.8973055817670308e-02  5.3127647526609964e-02  3.7873270433689724e-02  6.2218638435621185e-02  7.9675489499438340e-02  1.7423961354660072e-01  2.1094309175416490e-01  6.5245735379318937e-02  1.7703558282774998e-01  1.1499978788264316e+00  1.1786214764846912e+00  8.3417725134224008e-01  1.2607325819292198e-01  8.0237330612879618e-02  1.4936482912846774e-01  1.2212465978828754e-01  1.5017584327698522e-01  5.1102593983225419e-02  4.9832852549697639e-02  1.1453946667867454e+00  4.9614580000167906e-02  1.3319778588655970e-01  1.1491091471079991e-01  5.1178233844499210e-01  6.6786695874361313e-02  4.7153146770930399e-01  8.5896135186666833e-01  4.9387597710526157e-02  1.2899655936727437e+00  5.9633273396452224e-01  3.1610100803063014e-02  3.9663251460876864e-01  1.3231585638537915e-01  1.2030255403416590e-01  1.1395211561462046e+00  5.1598473051443355e-02  9.8648734634298851e-02  1.3725322610243848e-01  1.3037672664849129e+00  8.5067206896889749e-02  1.6529176354301131e-01  1.2699482628704863e+00  3.0532318913321671e-01  1.5256169302711783e-01  1.2977756434615755e+00  5.6683458997722125e-01  7.5084637112488736e-02  8.7946173572678435e-02  2.2113323461285009e-01  7.1900244196794405e-01  1.2776223014578103e-01  4.3561775858974583e-02  4.3127231662229637e-01  2.9286550298001521e-02  2.9550540035254636e-02  2.8660120936640898e-02  2.9674356054059520e-02  8.6639898412589594e-02  5.4024191787385663e-02  7.0822709143041493e-02  5.6959782234054693e-02  1.2338021538816366e-01  7.0116914747608838e-01  6.4258722345420877e-02  7.5962246250464882e-02  2.0752531203718108e-01  8.2636225420546239e-01  6.7311076814773685e-01  8.4695918374833667e-01  6.9368705514826878e-02  8.2568940068336139e-01  1.3536116818273192e-01  7.0475410969543217e-01  1.2980447719007255e+00  1.3988769847295893e-01  5.4684441701014075e-01  2.5399070907938953e-01  1.3441160311278125e-01  3.7865964321424772e-01  8.0765012779804335e-01  1.1797070333575699e+00  3.9195968414755283e-02  -1.7500887036020509e-02  -1.7329877308643365e-02  -1.8804285529961735e-02  -2.1741924489822678e-02  -1.8828080619319284e-02  -2.2091758175595874e-02  -1.7548333534949497e-02  -1.8577280010132584e-02  -1.7620711669792424e-02  -1.8757972871641517e-02  -2.1899176484132084e-02  -2.1887252953444247e-02  -1.3838438603704048e-02  -1.3228017025278120e-02  -1.4418560969042607e-02  -1.3518949345367496e-02  -1.7984670969258768e-02  -2.1659566942177539e-02  -2.1681574052753363e-02  -1.7823096405049678e-02  -2.4559522149829028e-02  -2.6315354006913740e-02  -1.8276361252131817e-02  -1.8353594992652371e-02  -2.3200283332559447e-02  -2.6216589540182106e-02  -2.6986577268587008e-02  -2.6910453756853844e-02  -2.7554986261019279e-02  -2.7535679700277840e-02  -1.4901029771130577e-02  -1.4555324087127368e-02  -1.4884036347515603e-02  -1.4522770137128429e-02  -1.4624643933202966e-02  -1.4548252402412963e-02  -1.4688827663907472e-02  -2.7525190926489147e-02  -2.7603311048990643e-02  -2.6931114631834320e-02  -2.6220666784004733e-02  -1.5499904437821989e-02  -1.5151651805686825e-02  -1.5027557784964340e-02  -1.4896570395022022e-02  -1.5196608955440765e-02  -1.4913180225080577e-02  -1.5916189748830800e-02  -1.4422378205978506e-02  -2.6349206102223036e-02  -2.5840617935937574e-02  -1.4846035304212562e-02  -1.4467672947535200e-02  -1.4873953940238022e-02  -2.4723870006959733e-02  -2.6348696760751463e-02  -2.6578636891677825e-02  -2.7204077217456480e-02  -2.7464745295782706e-02  -2.7699075140515027e-02  -2.7450896813416586e-02  -2.7571778102413864e-02  -2.7471636972145327e-02  -2.7113338789446769e-02  -2.4580272362094636e-02  -2.6315926248263836e-02  -2.6470301178361869e-02  -2.7101830342713809e-02  -2.6695368367814179e-02  -2.7345170809064217e-02  -2.7592819133340322e-02  -2.7471863986164722e-02  -2.7354216344350795e-02  -2.7028402475107387e-02  -1.9904670644740979e-02  -2.4595267649250685e-02  -2.6352497658965298e-02  -2.6248585642516108e-02  -2.7033510546144467e-02  -2.6946199332297034e-02  -2.7583551478352217e-02  -2.7584552379517600e-02  -2.7575034123095053e-02  -2.7580081958678247e-02  -1.7190805047093576e-02  -1.7805289204492467e-02  -1.9267659364913668e-02  -1.9240078697696474e-02  -2.7333997390054137e-02  -2.6796114958281023e-02  -2.6720690928357639e-02  -2.6840705861685112e-02  -2.6931814087713328e-02  -2.6988319977259524e-02  -1.4462150630502201e-02  -2.6580651921275313e-02  -2.7338141161098398e-02  -2.6770476035149909e-02  -2.6530707496906804e-02  -2.7136500040747941e-02  -2.7232740211348180e-02  -1.9825742232089733e-02  -2.5149118658063904e-02  -2.5324975900157413e-02  -1.2464219412377811e-02  -1.2164956882522237e-02  -1.2398530262449529e-02  -2.5132102085937559e-02  -2.5208999421347789e-02  -2.4675620260401428e-02  -2.4381916133849015e-02  -2.5801186556392495e-02  -2.6475591148041891e-02  -2.5695177565221314e-02  -2.6321752680123003e-02  -2.5003076640229820e-02  -2.6153391832372613e-02  -2.4574836828412487e-02  -2.5355390766573265e-02  -2.3980422931256049e-02  -2.4290454117948102e-02  -2.5176497333176850e-02  -2.6229416522385932e-02  -2.4667535670446314e-02  -2.5317774255064811e-02  -2.4031900144675426e-02  -2.4408613480760250e-02  -2.3381130701313122e-02  -2.3657184909109806e-02  -2.2857265354159342e-02  -2.3163095849482840e-02  -2.2503922143977645e-02  -2.2952527122367922e-02  -2.2387408611100095e-02  -2.3035955442934457e-02  -2.3273726781022686e-02  -2.3523038091142555e-02  -2.2725989847044152e-02  -2.3025801513588792e-02  -2.2364044787244932e-02  -2.2812146649413619e-02  -2.2237470514311027e-02  -2.2898001605482346e-02  -2.4979996822130097e-02  -2.4998465141343976e-02  -2.6734953469291410e-02  -2.6640454704297888e-02  -2.4919857579857249e-02  -2.4761427836272946e-02  -2.2583555176496635e-02  -2.3420711156878202e-02  -2.2910838564945846e-02  -2.4028942198992313e-02  -2.3319205796848465e-02  -2.2436593565280320e-02  -2.3278796011941331e-02  -2.2760905581081417e-02  -2.3894406845225154e-02  -2.3187458422228122e-02  -2.7080428375483273e-02  -2.5649702628807284e-02  -2.5308174383068080e-02  -2.3540999542758706e-02  -2.4219809715260270e-02  -2.3650904085986323e-02  -2.4316954406133927e-02  -2.2705993888535548e-02  -2.2880419038585856e-02  -2.2843033484506503e-02  -2.3060846520599060e-02  -2.3080748231081950e-02  -2.0844373637728723e-02  -2.3199283945068552e-02  -2.4364227691795502e-02  -2.3302213685626821e-02  -2.2482884150365281e-02  -2.0694293479735025e-02  -2.4407140734364771e-02  -2.2962848930120766e-02  -2.4375692971411209e-02  -2.2234265599057158e-02  -2.4520094322813480e-02  -2.2323614981854450e-02  -2.2221221478694389e-02  -2.1981943503762518e-02  -2.4099451321012513e-02  -2.1772604026310288e-02  -2.3928249106623903e-02  -1.8794545566438288e-02  -2.6486697382716314e-02  -9.6617371517245722e-03  -2.5292449154539650e-02  -2.6595964074308306e-02  -2.1701494937903340e-02  -2.1728518093692962e-02  -2.3317261538597082e-02  -2.1803042759667986e-02  -2.5700315370033866e-02  -2.5551136916719470e-02  -2.5301920645852544e-02  -2.6253640604905575e-02  -2.5495686614671369e-02  -2.5902496000340912e-02  -2.5154056282684644e-02  -2.4542417857505713e-02  -2.4070944136872122e-02  -2.5364338254929428e-02  -2.4240572166704034e-02  -2.3501903809556836e-02  -2.3376605167780930e-02  -2.2956644059554138e-02  -2.2870544025964171e-02  -2.2680848529334864e-02  -2.2620358123245303e-02  -2.3392681240551671e-02  -2.3216326564491165e-02  -2.1845135066781870e-02  -2.3919433693188722e-02  -2.3756563454703148e-02  -2.3126920708672387e-02  -1.9187926045965788e-02  -2.2703944435524349e-02  -2.1963054425276279e-02  -2.2329821528027129e-02  -2.1763676279124983e-02  -9.1889133459482006e-03  -9.9633773987852729e-03  -9.4833542367941098e-03  -2.5967917086193330e-02  -2.3699942229481668e-02  -2.6692309311648860e-02  -2.4557679747780465e-02  -2.5833886009861393e-02  -1.9418610565055429e-02  -2.0108775845466782e-02  -2.0317999611721066e-02  -2.3415840739778464e-02  -2.4676189651230473e-02  -2.5520024137053496e-02  -2.4628866187033461e-02  -2.3414934527045413e-02  -2.3661719539890474e-02  -2.3768396120852572e-02  -2.3194855848060959e-02  -2.2959959406742746e-02  -2.2865545899804048e-02  -2.2085844120245706e-02  -2.2645066005726897e-02  -2.2547612753727461e-02  -2.2728743919998819e-02  -2.2540536282881156e-02  -2.3112691913343593e-02  -2.2496730466934983e-02  -2.3585885961891519e-02  -2.3475582542391647e-02  -2.4270802023790318e-02  -2.3887457409096358e-02  -2.5163850007884358e-02  -2.3936311180732785e-02  -2.5768037380904628e-02  -2.3438356770722757e-02  -2.5236844097287329e-02  -2.3037039024969418e-02  -2.4019747834583445e-02  -2.2405836000546468e-02  -2.5892760540861520e-02  -2.5413939574514315e-02  -2.1853215320410190e-02  -2.0409013175014996e-02  -2.3106427574858496e-02  -2.2487913044093789e-02  -2.5866069083755890e-02  -2.2408317810643390e-02  -2.5101474289961262e-02  -2.1441291061856275e-02  -2.1153289711111769e-02  -2.3194487093724521e-02  -2.5853060893761128e-02  -2.0917155967271537e-02  -2.4223830854623828e-02  -2.1995236189331396e-02  -2.0916829018956643e-02  -2.1244196404772025e-02  -2.1242404486308208e-02  -2.3757419828630662e-02  -2.2065329673012640e-02  -2.2802691126403492e-02  -2.2226224556510719e-02  -2.3614608171668196e-02  -2.4324166058753743e-02  -2.0723218174814557e-02  -2.1504265604760375e-02  -1.7415912804430309e-02  -2.1665182653690069e-02  -2.2665191391983756e-02  -2.4866596847693555e-02  -2.2651299606578988e-02  -2.1571721473711006e-02  -1.7325