<?xml version="1.0"?>
<VTKFile type="UnstructuredGrid"  version="0.1"  >
<UnstructuredGrid>
<Piece  NumberOfPoints="1297" NumberOfCells="2496">
<Points>
<DataArray  type="Float64"  NumberOfComponents="3"  format="ascii">0 0 0  0 1 0  1 1 0  1 0 0  1.1 -0.1 0  -0.1 -0.1 0  1.1 1.1 0  -0.1 1.1 0  0.3096485220337842 0.660469758513507 0  0.3100307626816969 0.3397244988133718 0  0.6900900185636564 0.3393760536522031 0  0.6901073839105952 0.6605334040027372 0  0.5000866421036098 0.5001227534549511 0  0 0.9499999999997918 0  0 0.8999999999995836 0  0 0.8499999999996529 0  0 0.7999999999999998 0  0 0.7500000000003466 0  0 0.7000000000006934 0  0 0.6500000000010401 0  0 0.6000000000013869 0  0 0.5500000000017335 0  0 0.5000000000020587 0  0 0.4500000000018723 0  0 0.4000000000016644 0  0 0.3500000000014564 0  0 0.3000000000012483 0  0 0.2500000000010403 0  0 0.2000000000008322 0  0 0.1500000000006241 0  0 0.100000000000416 0  0 0.05000000000020799 0  0.04999999999989965 0 0  0.09999999999981467 0 0  0.1499999999997036 0 0  0.1999999999995579 0 0  0.2499999999994121 0 0  0.2999999999992664 0 0  0.3499999999991206 0 0  0.3999999999989749 0 0  0.4499999999988292 0 0  0.4999999999986943 0 0  0.5499999999988151 0 0  0.5999999999989468 0 0  0.6499999999990784 0 0  0.69999999999921 0 0  0.7499999999993417 0 0  0.7999999999994734 0 0  0.8499999999996051 0 0  0.8999999999997368 0 0  0.9499999999998684 0 0  1 0.04999999999989965 0  1 0.09999999999981467 0  1 0.1499999999997036 0  1 0.1999999999995579 0  1 0.2499999999994121 0  1 0.2999999999992664 0  1 0.3499999999991206 0  1 0.3999999999989749 0  1 0.4499999999988292 0  1 0.4999999999986943 0  1 0.5499999999988151 0  1 0.5999999999989468 0  1 0.6499999999990784 0  1 0.69999999999921 0  1 0.7499999999993417 0  1 0.7999999999994734 0  1 0.8499999999996051 0  1 0.8999999999997368 0  1 0.9499999999998684 0  0.9499999999997918 1 0  0.8999999999995836 1 0  0.8499999999996529 1 0  0.7999999999999998 1 0  0.7500000000003466 1 0  0.7000000000006934 1 0  0.6500000000010401 1 0  0.6000000000013869 1 0  0.5500000000017335 1 0  0.5000000000020587 1 0  0.4500000000018723 1 0  0.4000000000016644 1 0  0.3500000000014564 1 0  0.3000000000012483 1 0  0.2500000000010403 1 0  0.2000000000008322 1 0  0.1500000000006241 1 0  0.100000000000416 1 0  0.05000000000020799 1 0  -0.1 1.05000000000004 0  -0.1 1.000000000000079 0  -0.1 0.9500000000001624 0  -0.1 0.9000000000003032 0  -0.1 0.850000000000444 0  -0.1 0.8000000000005848 0  -0.1 0.7500000000007256 0  -0.1 0.7000000000008665 0  -0.1 0.6500000000010508 0  -0.1 0.6000000000012352 0  -0.1 0.5500000000014196 0  -0.1 0.500000000001539 0  -0.1 0.4500000000014195 0  -0.1 0.4000000000013 0  -0.1 0.3500000000011588 0  -0.1 0.3000000000010178 0  -0.1 0.2500000000008986 0  -0.1 0.2000000000007579 0  -0.1 0.1500000000006174 0  -0.1 0.1000000000005272 0  -0.1 0.05000000000040083 0  -0.1 2.671196597248127e-13 0  -0.1 -0.0499999999998666 0  -0.0500000000000906 -0.1 0  -1.730560139634463e-13 -0.1 0  0.04999999999975802 -0.1 0  0.09999999999961506 -0.1 0  0.1499999999994613 -0.1 0  0.199999999999302 -0.1 0  0.2499999999991446 -0.1 0  0.2999999999990088 -0.1 0  0.3499999999988296 -0.1 0  0.3999999999986936 -0.1 0  0.4499999999985143 -0.1 0  0.4999999999984002 -0.1 0  0.5499999999985247 -0.1 0  0.5999999999986493 -0.1 0  0.6499999999987955 -0.1 0  0.6999999999989417 -0.1 0  0.7499999999990659 -0.1 0  0.7999999999992116 -0.1 0  0.8499999999993573 -0.1 0  0.8999999999994526 -0.1 0  0.949999999999584 -0.1 0  0.9999999999997226 -0.1 0  1.049999999999861 -0.1 0  1.1 -0.0500000000000906 0  1.1 -1.730560139634463e-13 0  1.1 0.04999999999975802 0  1.1 0.09999999999961506 0  1.1 0.1499999999994613 0  1.1 0.199999999999302 0  1.1 0.2499999999991446 0  1.1 0.2999999999990088 0  1.1 0.3499999999988296 0  1.1 0.3999999999986936 0  1.1 0.4499999999985143 0  1.1 0.4999999999984002 0  1.1 0.5499999999985247 0  1.1 0.5999999999986493 0  1.1 0.6499999999987955 0  1.1 0.6999999999989417 0  1.1 0.7499999999990659 0  1.1 0.7999999999992116 0  1.1 0.8499999999993573 0  1.1 0.8999999999994526 0  1.1 0.949999999999584 0  1.1 0.9999999999997226 0  1.1 1.049999999999861 0  1.05000000000004 1.1 0  1.000000000000079 1.1 0  0.9500000000001624 1.1 0  0.9000000000003032 1.1 0  0.850000000000444 1.1 0  0.8000000000005848 1.1 0  0.7500000000007256 1.1 0  0.7000000000008665 1.1 0  0.6500000000010508 1.1 0  0.6000000000012352 1.1 0  0.5500000000014196 1.1 0  0.500000000001539 1.1 0  0.4500000000014195 1.1 0  0.4000000000013 1.1 0  0.3500000000011588 1.1 0  0.3000000000010178 1.1 0  0.2500000000008986 1.1 0  0.2000000000007579 1.1 0  0.1500000000006174 1.1 0  0.1000000000005272 1.1 0  0.05000000000040083 1.1 0  2.671196597248127e-13 1.1 0  -0.0499999999998666 1.1 0  0.3002497657396314 0.6484693566125359 0  0.2896489796565244 0.6320272951284241 0  0.2791669840174593 0.612550965290302 0  0.269546264612767 0.5904442301258157 0  0.2616912277657218 0.5673998777806963 0  0.2561292559928824 0.5446782510390431 0  0.2529989831319766 0.5224048289953608 0  0.2520050083748839 0.5003949471896797 0  0.2531592363834613 0.4781623054322863 0  0.2565899005565162 0.455530916287352 0  0.2623150338599599 0.4325153712029141 0  0.2701221618760233 0.4094351814434527 0  0.2795559531257874 0.3874736859824909 0  0.2899978207860213 0.3680147123166826 0  0.3006439195757301 0.3516456694257701 0  0.3203617298480947 0.3284747073925106 0  0.3343374095775318 0.3154663200098391 0  0.3514674842007811 0.3018280054780262 0  0.3709351047499335 0.2886471085609272 0  0.3914466287989637 0.2771896609810118 0  0.4122037765715732 0.2678909722326477 0  0.4333233899234306 0.2606692113481276 0  0.4548910897465595 0.2554340685868579 0  0.4771754162647024 0.2520753996375062 0  0.4999011775529429 0.2507909691653363 0  0.5225554250285225 0.2517469080659467 0  0.5447459223957036 0.2549736688835871 0  0.5659582639218199 0.2602990256844738 0  0.5869736776012355 0.2674259690515132 0  0.6076789747343562 0.2767419373018591 0  0.6283557612852507 0.2882333306131842 0  0.6482719989704054 0.3014286982350231 0  0.6656815779896076 0.3150117231164886 0  0.6797184321288802 0.3280236087223303 0  0.6996992506649893 0.3516008477382225 0  0.7104243069112474 0.3679405630980008 0  0.721051801148577 0.3875472266247746 0  0.7306247530651789 0.4094660734845028 0  0.738405360872979 0.4324172010372322 0  0.7440138327142436 0.4553630536239527 0  0.7473616477394118 0.4779310425887155 0  0.7485469097394458 0.5003299747009384 0  0.7475597157856426 0.5228313233654657 0  0.7442118773944163 0.5454470580495312 0  0.7385500629864237 0.5684093302650292 0  0.7306545714804438 0.5913607696455354 0  0.7209962817621516 0.6129807474595581 0  0.7104143942207926 0.6322714245973161 0  0.6997164178936724 0.6483910771331791 0  0.6796737539448638 0.6718233963139213 0  0.6654878434777882 0.6848497075707189 0  0.6480112600593153 0.6985640412954373 0  0.628219186258132 0.7119075356987474 0  0.6077681543167175 0.7237043192857984 0  0.5872574786934454 0.7333834372592953 0  0.566243702622685 0.7407784706719412 0  0.5448723012901389 0.7461980871082837 0  0.5225968266366807 0.749486064783652 0  0.4999203741372695 0.7505702830311543 0  0.4773007193603859 0.74942153463325 0  0.4552089661258848 0.7460772927585961 0  0.4337581415819594 0.7406748271959862 0  0.4129442542287242 0.733170781727747 0  0.392324507623624 0.7235425414860521 0  0.3712295688270991 0.711692825138906 0  0.3512168569919728 0.6983242527384426 0  0.3339310147717221 0.6847108992971288 0  0.3199482008289429 0.6717339872743255 0  0.3814666847096354 0.3106218168861988 0  0.2821433965285589 0.4429358084362367 0  0.3817208742080175 0.6897360512966763 0  0.2817538202570343 0.5572231436825205 0  0.7143464724324294 0.580262620194772 0  0.5973951703399989 0.6997043540680905 0  0.6171736366394304 0.3094706160369168 0  0.7198829087015849 0.4422262112454649 0  0.7253285584535073 0.5112212346676877 0  0.5545075488858798 0.2875496989846231 0  0.445196262238396 0.2905006710487374 0  0.4443341647077423 0.7106320028701083 0  0.5335027005363147 0.7151145245282143 0  0.2759426793715498 0.4888615512831088 0  0.293888484412311 0.3973369596126755 0  0.4886341293663112 0.2884007782684379 0  0.2984271320835759 0.6012736720861896 0  0.7007672529493841 0.3952901451786738 0  0.4888221540813457 0.7168928511362723 0  0.6381026299487784 0.6803258933882088 0  0.3425860992490857 0.3328969247109232 0  0.6576445226734644 0.334061906493818 0  0.3428648836344904 0.6697872773530105 0  0.6954712431348948 0.6253630965334316 0  0.3112962328414056 0.3573503945632862 0  0.31260531922582 0.6419486312471461 0  0.6738050842382397 0.6602895361816985 0  0.6893322254215768 0.3568566839057202 0  0.361578372227653 0.6798818607193386 0  0.3705958507747321 0.660866336287802 0  0.3909054209209846 0.6673671014330919 0  0.3780241828762121 0.6398496901731695 0  0.399700979556841 0.6434865414664659 0  0.3852338093117858 0.6147171750878276 0  0.412709825043473 0.6158054516051559 0  0.3950874749341089 0.5844415349297755 0  0.3591491237024826 0.6107559402469463 0  0.4297187487618116 0.584977768910505 0  0.4075066757786692 0.5491198590057879 0  0.3676725849398204 0.5537702982192699 0  0.3832948021853442 0.5145529216757893 0  0.3456755160152222 0.516369789428158 0  0.3588566574979333 0.4817680832330155 0  0.3985730612613693 0.4760701588151396 0  0.3786438529232754 0.4432914922358789 0  0.415428239224232 0.4372542962885228 0  0.3966892028787035 0.4066720880577117 0  0.4304829923869062 0.3956682863728376 0  0.3630090549957427 0.4090516862586792 0  0.4070845133523278 0.373133302001365 0  0.4399601573941553 0.6168978785810634 0  0.4653492854989129 0.5919385949025586 0  0.4839597209494506 0.615990250589193 0  0.5022000366355011 0.5931383521383838 0  0.5195822508981011 0.6163916931442031 0  0.538161963079315 0.5939214932107556 0  0.5550378594766691 0.6183959782568086 0  0.5741385521990974 0.595544156438478 0  0.5907599873668328 0.6235489792621753 0  0.6098228787303589 0.5899287915731167 0  0.5957405051258687
[...]
<PointData  Scalars="state"> 
<DataArray  type="Float64"  Name="state"  format="ascii">0.0000000000000000e+00  0.0000000000000000e+00  0.0000000000000000e+00  0.0000000000000000e+00  0.0000000000000000e+00  0.0000000000000000e+00  0.0000000000000000e+00  0.0000000000000000e+00  -1.7036684425741393e-02  -1.7096889954293506e-02  -1.7205955687193592e-02  -1.7057297356941725e-02  1.3456705689351856e+00  0.0000000000000000e+00  0.0000000000000000e+00  0.0000000000000000e+00  0.0000000000000000e+00  0.0000000000000000e+00  0.0000000000000000e+00  0.0000000000000000e+00  0.0000000000000000e+00  0.0000000000000000e+00  0.0000000000000000e+00  0.0000000000000000e+00  0.0000000000000000e+00  0.0000000000000000e+00  0.0000000000000000e+00  0.0000000000000000e+00  0.0000000000000000e+00  0.0000000000000000e+00  0.0000000000000000e+00  0.0000000000000000e+00  0.0000000000000000e+00  0.0000000000000000e+00  0.0000000000000000e+00  0.0000000000000000e+00  0.0000000000000000e+00  0.0000000000000000e+00  0.0000000000000000e+00  0.0000000000000000e+00  0.0000000000000000e+00  0.0000000000000000e+00  0.0000000000000000e+00  0.0000000000000000e+00  0.0000000000000000e+00  0.0000000000000000e+00  0.0000000000000000e+00  0.0000000000000000e+00  0.0000000000000000e+00  0.0000000000000000e+00  0.0000000000000000e+00  0.0000000000000000e+00  0.0000000000000000e+00  0.0000000000000000e+00  0.0000000000000000e+00  0.0000000000000000e+00  0.0000000000000000e+00  0.0000000000000000e+00  0.0000000000000000e+00  0.0000000000000000e+00  0.0000000000000000e+00  0.0000000000000000e+00  0.0000000000000000e+00  0.0000000000000000e+00  0.0000000000000000e+00  0.0000000000000000e+00  0.0000000000000000e+00  0.0000000000000000e+00  0.0000000000000000e+00  0.0000000000000000e+00  0.0000000000000000e+00  0.0000000000000000e+00  0.0000000000000000e+00  0.0000000000000000e+00  0.0000000000000000e+00  0.0000000000000000e+00  0.0000000000000000e+00  0.0000000000000000e+00  0.0000000000000000e+00  0.0000000000000000e+00  0.0000000000000000e+00  0.0000000000000000e+00  0.0000000000000000e+00  0.0000000000000000e+00  0.0000000000000000e+00  0.0000000000000000e+00  0.0000000000000000e+00  0.0000000000000000e+00  0.0000000000000000e+00  0.0000000000000000e+00  0.0000000000000000e+00  0.0000000000000000e+00  0.0000000000000000e+00  0.0000000000000000e+00  0.0000000000000000e+00  0.0000000000000000e+00  0.0000000000000000e+00  0.0000000000000000e+00  0.0000000000000000e+00  0.0000000000000000e+00  0.0000000000000000e+00  0.0000000000000000e+00  0.0000000000000000e+00  0.0000000000000000e+00  0.0000000000000000e+00  0.0000000000000000e+00  0.0000000000000000e+00  0.0000000000000000e+00  0.0000000000000000e+00  0.0000000000000000e+00  0.0000000000000000e+00  0.0000000000000000e+00  0.0000000000000000e+00  0.0000000000000000e+00  0.0000000000000000e+00  0.0000000000000000e+00  0.0000000000000000e+00  0.0000000000000000e+00  0.0000000000000000e+00  0.0000000000000000e+00  0.0000000000000000e+00  0.0000000000000000e+00  0.0000000000000000e+00  0.0000000000000000e+00  0.0000000000000000e+00  0.0000000000000000e+00  0.0000000000000000e+00  0.0000000000000000e+00  0.0000000000000000e+00  0.0000000000000000e+00  0.0000000000000000e+00  0.0000000000000000e+00  0.0000000000000000e+00  0.0000000000000000e+00  0.0000000000000000e+00  0.0000000000000000e+00  0.0000000000000000e+00  0.0000000000000000e+00  0.0000000000000000e+00  0.0000000000000000e+00  0.0000000000000000e+00  0.0000000000000000e+00  0.0000000000000000e+00  0.0000000000000000e+00  0.0000000000000000e+00  0.0000000000000000e+00  0.0000000000000000e+00  0.0000000000000000e+00  0.0000000000000000e+00  0.0000000000000000e+00  0.0000000000000000e+00  0.0000000000000000e+00  0.0000000000000000e+00  0.0000000000000000e+00  0.0000000000000000e+00  0.0000000000000000e+00  0.0000000000000000e+00  0.0000000000000000e+00  0.0000000000000000e+00  0.0000000000000000e+00  0.0000000000000000e+00  0.0000000000000000e+00  0.0000000000000000e+00  0.0000000000000000e+00  0.0000000000000000e+00  0.0000000000000000e+00  0.0000000000000000e+00  0.0000000000000000e+00  0.0000000000000000e+00  0.0000000000000000e+00  0.0000000000000000e+00  0.0000000000000000e+00  0.0000000000000000e+00  0.0000000000000000e+00  0.0000000000000000e+00  0.0000000000000000e+00  0.0000000000000000e+00  0.0000000000000000e+00  0.0000000000000000e+00  0.0000000000000000e+00  0.0000000000000000e+00  -1.4109334540629312e-02  -1.3282678377258562e-02  -1.1233531022420754e-02  -1.0225040670233063e-02  -9.6484485915579923e-03  -9.3149577180697656e-03  -8.9526123829509457e-03  -9.5931424860158047e-03  -8.2326593735930868e-03  -8.7270803452489994e-03  -1.0028288660026212e-02  -1.0752854791024564e-02  -1.1069768546416147e-02  -1.2722802246667133e-02  -1.3706188821467820e-02  -1.4399726776867209e-02  -1.2805386440177305e-02  -1.1116807518687004e-02  -9.8081432093827040e-03  -9.3819139986313013e-03  -7.7291502471740509e-03  -7.2730389974338620e-03  -7.4520354103741887e-03  -6.3320358438145822e-03  -6.8936429634007205e-03  -7.0280690254727720e-03  -6.8551187982966383e-03  -8.3113406771196125e-03  -7.2366218545517787e-03  -9.8776012149738596e-03  -1.0700509392596064e-02  -1.1380672600595302e-02  -1.2727843358288100e-02  -1.4435781061240846e-02  -1.4450349284309924e-02  -1.3025320057949435e-02  -1.1362788190561246e-02  -1.0132733294381628e-02  -9.7514562120300449e-03  -9.3958427134858049e-03  -9.1854965793649948e-03  -8.4758588768781354e-03  -8.0744000886771531e-03  -8.8381280756836631e-03  -9.2260290348922958e-03  -9.5621074883938829e-03  -1.1324681014700751e-02  -1.2884859639151770e-02  -1.4337814771840558e-02  -1.4149688117042310e-02  -1.2722825334064476e-02  -1.1594415630864026e-02  -1.0748673851764758e-02  -9.9257076003777811e-03  -7.7366159302399541e-03  -8.6744751358132002e-03  -6.6541485133142508e-03  -6.4430782706840946e-03  -6.5274239461307268e-03  -6.7488552756237823e-03  -7.3129643485430008e-03  -6.7070390241252545e-03  -8.0517492531069802e-03  -9.4922672491426184e-03  -9.8310021469700144e-03  -1.1042280900853406e-02  -1.2814163227987781e-02  -1.4343824838128863e-02  5.3151539991146891e-02  5.0768304031384014e-02  5.3623382390331112e-02  5.0484282637378163e-02  4.7166037743998780e-02  5.6237516633610624e-02  5.3070522279901236e-02  4.8966985317766248e-02  4.9088590442902459e-02  6.1325849965914211e-02  6.4473708424096818e-02  6.4872714034337184e-02  6.3910874072484608e-02  5.0752857139721330e-02  4.3905894594718844e-02  7.4844115739804581e-02  5.0172472066069194e-02  4.8986554965203363e-02  6.7779380095647240e-02  4.8463536298392070e-02  4.4236117728430863e-02  4.5863305839350624e-02  4.2247027949929072e-02  4.2419234610715145e-02  3.2950479828683696e-02  3.5971281522806792e-02  3.4196653731951104e-02  3.3532806736713702e-02  4.8133940776842001e-02  8.1658862116136571e-02  1.0493851748989462e-01  1.7356791190148046e-01  2.5083209372899262e-01  4.4888018509801469e-01  7.2723042457074294e-01  8.0045212155477863e-01  2.1437197035400848e-01  9.3760057159866228e-01  9.7558832167553799e-01  7.4633755404553026e-01  8.9993567273111064e-01  5.6598166431982622e-01  7.4998359659529290e-01  9.7507190985554426e-01  8.1625834983713175e-01  9.6519746495801240e-01  7.7803591157859597e-01  8.5445808070500262e-01  4.1536441811283509e-01  5.3948470351489375e-01  8.3361878399039835e-01  1.0251570508058254e+00  9.0068257408646968e-01  1.0689265636891125e+00  8.7828328503285047e-01  1.0083244761291719e+00  8.2139769750761338e-01  8.7541488377400711e-01  6.0800537350886097e-01  7.6286812993406061e-01  9.3279408679387221e-01  7.5523194768752522e-01  9.0929165179405624e-01  3.5529142404377784e-01  2.6395280822980777e-01  2.9730538556116942e-01  4.5407519671606938e-01  2.5364130940336749e-01  1.4498868325817282e-01  6.6017195161637587e-01  9.0329248040834131e-01  1.2378261937440624e-01  2.0508115357965287e-01  5.6196373797387789e-01  4.2261332210524560e-01  6.6827155673692440e-01  9.5235967827573897e-01  6.1704219741088340e-01  8.9396208051782400e-01  1.1186434846777005e+00  9.4360895204896778e-01  7.7310084766580467e-01  7.7924930342435150e-01  9.9550662725511319e-01  7.7953240046105976e-01  4.3302325205358289e-01  3.4897789549101393e-01  6.0650840021870334e-01  1.7151001878790179e-01  1.4070506302409441e-01  9.8793406825050875e-02  1.0325179541062496e-01  1.1366080441367727e+00  1.2726848783486733e-01  1.4939342385488222e-01  1.0491807205488675e-01  1.4566760189658945e-01  8.4990401881431879e-02  8.7111750572035074e-02  1.2237145732410921e-01  5.3072190485815707e-01  1.4068400897085875e-01  7.4585163713745087e-02  2.0144430086053638e-01  3.5073396588121636e-01  1.5847101701677149e-01  1.5054161737576810e-01  2.6195000716627653e-01  1.2425333566743363e-01  9.9100700662670516e-02  9.0380095419607120e-02  1.2721837025284538e-01  8.8286136955829500e-02  1.3686724274141043e-01  6.4642305747115103e-02  2.8043366280270349e-01  1.2167142935068600e+00  7.8220187761260634e-02  1.1996157543800399e+00  5.9902780855742566e-01  1.5943549117997821e-01  4.9718657182950765e-01  1.6645839916282332e-01  8.8187264050175102e-02  7.6999349928914246e-02  1.3855293075804728e-01  3.5172555476623696e-01  1.8770311524664798e-01  1.0306937887970506e-01  1.0143614991066487e+00  6.3538979246909280e-02  5.2905042286725157e-02  2.9482547757671634e-01  1.4925446621658456e-01  1.6075668730952994e-01  2.8584000676998367e-01  1.9040952202967998e-01  9.7683785616117277e-02  1.4715477240062158e-01  1.0407990637746943e-01  7.3991534158137653e-02  6.5048201937312991e-02  4.3830023589986090e-02  4.8813044069445567e-02  8.7420158015663260e-02  5.9043284302775521e-02  6.3986623771584816e-02  6.6584432639871807e-02  4.1067308993886040e-02  4.0565847896658694e-02  6.2448025448646138e-02  1.3361336296692389e-01  3.8795946558016248e-01  4.9336657910754152e-02  5.7877796682731950e-02  6.7706447826396246e-02  4.8003125216128817e-02  7.1078360050592940e-02  6.7146798455426787e-02  5.5112364495810390e-02  4.2211945658663819e-02  5.7844943470538930e-02  6.3039142123103048e-02  4.9146126087567903e-02  7.5126152535418211e-02  6.0252569218645122e-02  1.1272442734266515e-01  6.3283231992877984e-02  5.2130113801288555e-02  4.3012844125551182e-02  4.2681140053207681e-02  7.4190470939424963e-02  2.3286113667937713e-01  6.3269415830668932e-02  5.7221556607719111e-02  8.2101143836898663e-02  3.3451174098324543e-02  3.3815615663017176e-02  3.2997277523274672e-02  3.4226264099158417e-02  5.1056572792745378e-02  1.1026491076554779e+00  1.2651671320974880e+00  9.4607054149715653e-02  4.9679640127993786e-02  4.6287621037879971e-02  5.5364636188384338e-02  4.1048674838348148e-02  6.2131130805403563e-02  7.7293495535981444e-02  1.8014918942832495e-01  2.0466642026075577e-01  6.5678720654326866e-02  1.8141547278065367e-01  1.1521560581650372e+00  1.1748277721021454e+00  8.2988619856368118e-01  1.2524175267614965e-01  7.8533182520908143e-02  1.5287832702341597e-01  1.1832633574568639e-01  1.5091841225425640e-01  4.8787382763787489e-02  4.7730092305971292e-02  1.1406527131677022e+00  5.2901355506068080e-02  1.3281890971426205e-01  1.1197887520830245e-01  5.2231488363512835e-01  6.4806775624538709e-02  4.9257653720009048e-01  8.4553388676612617e-01  4.6736752947189285e-02  1.2879378921766100e+00  5.3335954307382338e-01  3.6586447128100517e-02  4.1481383283059681e-01  1.3263225307828599e-01  1.1802478085775790e-01  1.1410328356511836e+00  4.8958606076049120e-02  9.4067554177618307e-02  1.4140677976396582e-01  1.3021483607093445e+00  8.3148981663587668e-02  1.6184130543957342e-01  1.2681738972465322e+00  3.1931687807664372e-01  1.5689677874117039e-01  1.2959908293982618e+00  5.7902009143338851e-01  7.2335224533087439e-02  8.3672312837592175e-02  2.1288581503048021e-01  7.2560876676800579e-01  1.2847406740421871e-01  4.1062112518164738e-02  4.5189224524708332e-01  3.5677584933668363e-02  3.5821819435057314e-02  3.4891819309680293e-02  3.6338318557990641e-02  8.6103770133838325e-02  5.6312742786885396e-02  6.8259770560029381e-02  5.6013232102893343e-02  1.2155430316103837e-01  7.1307539233035933e-01  6.7965865012358184e-02  7.6757856992211659e-02  2.0075445143264439e-01  8.2342621191812537e-01  6.8727043311704050e-01  8.4317510110148652e-01  6.6620599634420338e-02  8.2001540429444486e-01  1.3055891036659439e-01  7.2146573382644530e-01  1.2960524884959961e+00  1.3438645842565405e-01  5.6629823551349101e-01  2.5038684986808185e-01  1.3830876153128074e-01  4.1873847995692687e-01  8.0504250445015657e-01  1.1784297314202161e+00  4.3424091477061208e-02  -1.7864596870518414e-02  -1.7691622593758546e-02  -1.9525919192107125e-02  -2.1744665907303271e-02  -1.9605977253582461e-02  -2.2102411756959501e-02  -1.7930043436985687e-02  -1.9352244047203510e-02  -1.7946723007319157e-02  -1.9503547801007666e-02  -2.1887446609705374e-02  -2.1871304942023859e-02  -1.3877172842969175e-02  -1.3259343007712851e-02  -1.4460948556093582e-02  -1.3558020947366590e-02  -1.8895005017700427e-02  -2.1574866488547881e-02  -2.1659476700193615e-02  -1.8752578843352546e-02  -2.4363790646531575e-02  -2.6374704794582197e-02  -1.9123872048530055e-02  -1.9183530452815394e-02  -2.2947238457464207e-02  -2.6123781659684545e-02  -2.6970627389149085e-02  -2.6800064434505416e-02  -2.7699858811576439e-02  -2.7652888713911094e-02  -1.4948888946101831e-02  -1.4596747883670191e-02  -1.4930013888831379e-02  -1.4571340125502052e-02  -1.4680481428511206e-02  -1.4602215368255480e-02  -1.4738624097467515e-02  -2.7657610218337490e-02  -2.7741111090387866e-02  -2.7061536932332448e-02  -2.6291697346428087e-02  -1.5582733107598697e-02  -1.5225214922958382e-02  -1.5098378968484394e-02  -1.4977854090681640e-02  -1.5276491185216472e-02  -1.4995297713296983e-02  -1.5992582724732415e-02  -1.4470791872729830e-02  -2.6510848499705780e-02  -2.6011744811452176e-02  -1.4898791825343812e-02  -1.4515484616057572e-02  -1.4917840006106992e-02  -2.4519263318470378e-02  -2.6408610360005042e-02  -2.6471091447873626e-02  -2.7166101795567627e-02  -2.7552153031731006e-02  -2.7824483920463584e-02  -2.7564641186223947e-02  -2.7690383071513135e-02  -2.7598737335062025e-02  -2.7237203791423324e-02  -2.4383661042584669e-02  -2.6385302818886121e-02  -2.6382990918519204e-02  -2.7090007684901964e-02  -2.6588287532257157e-02  -2.7454001113226646e-02  -2.7741671679720366e-02  -2.7615796978896545e-02  -2.7506853793752149e-02  -2.7174668395738542e-02  -2.0225112448477248e-02  -2.4422342753666469e-02  -2.6416791903704297e-02  -2.6165919203925116e-02  -2.7029754254098683e-02  -2.6845542304684385e-02  -2.7732503142019041e-02  -2.7707887011761773e-02  -2.7712228288140583e-02  -2.7719728458299328e-02  -1.8182428775955724e-02  -1.8758901983157016e-02  -1.9887256626330983e-02  -1.9907382266626542e-02  -2.7484410696150097e-02  -2.6939783321318824e-02  -2.6866137823929919e-02  -2.6982982689816193e-02  -2.7050604309803838e-02  -2.7110993322009270e-02  -1.4507839220545618e-02  -2.6719454711346877e-02  -2.7484094978620265e-02  -2.6909355220898233e-02  -2.6665547966411750e-02  -2.7277513661722527e-02  -2.7371443993033213e-02  -2.0241692851601607e-02  -2.5284308636485314e-02  -2.5437986297804343e-02  -1.2496781868940141e-02  -1.2195065102846878e-02  -1.2426289301949110e-02  -2.5248672584000004e-02  -2.5346939328447449e-02  -2.4823492696422863e-02  -2.4545001425228138e-02  -2.5936005965463246e-02  -2.6614669414842494e-02  -2.5826555326720201e-02  -2.6459748196310858e-02  -2.5138999585559645e-02  -2.6302433414754522e-02  -2.4710861562456801e-02  -2.5517500924891807e-02  -2.4113179101875548e-02  -2.4455835391292806e-02  -2.5291106856615231e-02  -2.6348815247887115e-02  -2.4782542658641341e-02  -2.5451973931841572e-02  -2.4143651857616535e-02  -2.4550336277143581e-02  -2.3486703161464294e-02  -2.3798759236324643e-02  -2.2955929096036314e-02  -2.3294339349427935e-02  -2.2598379726136514e-02  -2.3075839147538829e-02  -2.2482144855542043e-02  -2.3162794279958186e-02  -2.3397221273781233e-02  -2.3682932847044761e-02  -2.2839724006242443e-02  -2.3171797802794335e-02  -2.2470315825293151e-02  -2.2946645141538737e-02  -2.2340269735371097e-02  -2.3033271003882489e-02  -2.5112393756126793e-02  -2.5138634019834051e-02  -2.6670688976353486e-02  -2.6572316080865268e-02  -2.5049930533865960e-02  -2.4896591779246056e-02  -2.2683208161006500e-02  -2.3557481055318498e-02  -2.3018635124294532e-02  -2.4168159211329549e-02  -2.3435154429710333e-02  -2.2541122065546926e-02  -2.3420697740216767e-02  -2.2870954965156530e-02  -2.4035130662385364e-02  -2.3304973888750021e-02  -2.7227347737999771e-02  -2.5802011867013908e-02  -2.5460421049331869e-02  -2.3770807852554254e-02  -2.4464773560316486e-02  -2.3870775532323269e-02  -2.4552300332061430e-02  -2.2893012394125736e-02  -2.2992276989738703e-02  -2.3014507686663535e-02  -2.3153537398464950e-02  -2.3298630179056923e-02  -2.0904752304537474e-02  -2.3404492350011061e-02  -2.4486817160322284e-02  -2.3413173284250986e-02  -2.2593116304005567e-02  -2.0763372003789787e-02  -2.4529831994255829e-02  -2.3069250623026765e-02  -2.4650761046672732e-02  -2.2340134201875025e-02  -2.4771206080503410e-02  -2.2465437576187176e-02  -2.2359092737464063e-02  -2.2124028441506259e-02  -2.4278973031733632e-02  -2.1880667706412359e-02  -2.4061470783410661e-02  -1.8872859651065325e-02  -2.6640650908262675e-02  -9.6806006146872622e-03  -2.5389445949708083e-02  -2.6738776611362917e-02  -2.1794668794899885e-02  -2.1878180317538298e-02  -2.3513799320243656e-02  -2.1879129277720441e-02  -2.5657859279816064e-02  -2.5530454041800727e-02  -2.5289498546913529e-02  -2.6325925167064782e-02  -2.5598455542921277e-02  -2.6080823774899758e-02  -2.5343076927372987e-02  -2.4704176678760459e-02  -2.4244830246712180e-02  -2.5518563261379051e-02  -2.4497084771730782e-02  -2.3689731732275884e-02  -2.3694899254746091e-02  -2.3164688389436638e-02  -2.3226789791155941e-02  -2.2903961937172375e-02  -2.3003374752301551e-02  -2.3527109031409737e-02  -2.3343294481048965e-02  -2.1950999365575461e-02  -2.4048512335522052e-02  -2.4046912496911661e-02  -2.3469118896520719e-02  -1.9266904164134364e-02  -2.2963485525585321e-02  -2.2064790214761890e-02  -2.2436107683547438e-02  -2.1928448471855551e-02  -9.2059288588223626e-03  -9.9850113953891366e-03  -9.4994857690058332e-03  -2.5994060187955130e-02  -2.3262848812293558e-02  -2.6850522292165280e-02  -2.4706122124085111e-02  -2.6003616616495525e-02  -1.9523413122035187e-02  -2.0202895656004086e-02  -2.0423543987574476e-02  -2.3566615485084888e-02  -2.4839691988314906e-02  -2.5685037818257640e-02  -2.4830531991253527e-02  -2.3579921616881709e-02  -2.3860349003630574e-02  -2.4065826544626513e-02  -2.3523440210582794e-02  -2.3147823455675558e-02  -2.3141258482581542e-02  -2.2258908234446449e-02  -2.2868643015965005e-02  -2.2948436321895090e-02  -2.3072345667646224e-02  -2.2725848443519273e-02  -2.3387869848989714e-02  -2.2661923918370307e-02  -2.3771593020157404e-02  -2.3803971108120749e-02  -2.4488309488864313e-02  -2.4047928433766481e-02  -2.5333359471920058e-02  -2.4078443468437807e-02  -2.5915372567217359e-02  -2.3571787750962039e-02  -2.5368820117698768e-02  -2.3346584512407138e-02  -2.4308839933873332e-02  -2.2688162823717360e-02  -2.6058703777390047e-02  -2.5614112006894087e-02  -2.2005127388661491e-02  -2.0543601725937114e-02  -2.3402610499669525e-02  -2.2755545202826712e-02  -2.5957601636043839e-02  -2.2842278927481224e-02  -2.5313935931690842e-02  -2.1593503384124465e-02  -2.1537222566383171e-02  -2.3543464038647134e-02  -2.5946720334556295e-02  -2.1038788842565621e-02  -2.4351626260574081e-02  -2.2467080651639881e-02  -2.0991821099990572e-02  -2.1327136993073547e-02  -2.1597310020126423e-02  -2.4018997273115465e-02  -2.2191789423479179e-02  -2.3191130737918699e-02  -2.2672158521346922e-02  -2.3904028529375138e-02  -2.4573451562936745e-02  -2.0797620654228452e-02  -2.1587875519311159e-02  -1.7515243944400405e-02  -2.2165250287776304e-02  -2.3053655754898098e-02  -2.5012729904257534e-02  -2.2792024430951758e-02  -2.1668157408241216e-02  -1.7402