<?xml version="1.0"?>
<VTKFile type="UnstructuredGrid"  version="0.1"  >
<UnstructuredGrid>
<Piece  NumberOfPoints="1297" NumberOfCells="2496">
<Points>
<DataArray  type="Float64"  NumberOfComponents="3"  format="ascii">0 0 0  0 1 0  1 1 0  1 0 0  1.1 -0.1 0  -0.1 -0.1 0  1.1 1.1 0  -0.1 1.1 0  0.3084598850035777 0.6615137031822158 0  0.3089195017511561 0.3387596270758888 0  0.6912660516052852 0.3383735447942135 0  0.6912861088451061 0.6615816100454703 0  0.5000874982378933 0.5001274979513777 0  0 0.9499999999997918 0  0 0.8999999999995836 0  0 0.8499999999996529 0  0 0.7999999999999998 0  0 0.7500000000003466 0  0 0.7000000000006934 0  0 0.6500000000010401 0  0 0.6000000000013869 0  0 0.5500000000017335 0  0 0.5000000000020587 0  0 0.4500000000018723 0  0 0.4000000000016644 0  0 0.3500000000014564 0  0 0.3000000000012483 0  0 0.2500000000010403 0  0 0.2000000000008322 0  0 0.1500000000006241 0  0 0.100000000000416 0  0 0.05000000000020799 0  0.04999999999989965 0 0  0.09999999999981467 0 0  0.1499999999997036 0 0  0.1999999999995579 0 0  0.2499999999994121 0 0  0.2999999999992664 0 0  0.3499999999991206 0 0  0.3999999999989749 0 0  0.4499999999988292 0 0  0.4999999999986943 0 0  0.5499999999988151 0 0  0.5999999999989468 0 0  0.6499999999990784 0 0  0.69999999999921 0 0  0.7499999999993417 0 0  0.7999999999994734 0 0  0.8499999999996051 0 0  0.8999999999997368 0 0  0.9499999999998684 0 0  1 0.04999999999989965 0  1 0.09999999999981467 0  1 0.1499999999997036 0  1 0.1999999999995579 0  1 0.2499999999994121 0  1 0.2999999999992664 0  1 0.3499999999991206 0  1 0.3999999999989749 0  1 0.4499999999988292 0  1 0.4999999999986943 0  1 0.5499999999988151 0  1 0.5999999999989468 0  1 0.6499999999990784 0  1 0.69999999999921 0  1 0.7499999999993417 0  1 0.7999999999994734 0  1 0.8499999999996051 0  1 0.8999999999997368 0  1 0.9499999999998684 0  0.9499999999997918 1 0  0.8999999999995836 1 0  0.8499999999996529 1 0  0.7999999999999998 1 0  0.7500000000003466 1 0  0.7000000000006934 1 0  0.6500000000010401 1 0  0.6000000000013869 1 0  0.5500000000017335 1 0  0.5000000000020587 1 0  0.4500000000018723 1 0  0.4000000000016644 1 0  0.3500000000014564 1 0  0.3000000000012483 1 0  0.2500000000010403 1 0  0.2000000000008322 1 0  0.1500000000006241 1 0  0.100000000000416 1 0  0.05000000000020799 1 0  -0.1 1.05000000000004 0  -0.1 1.000000000000079 0  -0.1 0.9500000000001624 0  -0.1 0.9000000000003032 0  -0.1 0.850000000000444 0  -0.1 0.8000000000005848 0  -0.1 0.7500000000007256 0  -0.1 0.7000000000008665 0  -0.1 0.6500000000010508 0  -0.1 0.6000000000012352 0  -0.1 0.5500000000014196 0  -0.1 0.500000000001539 0  -0.1 0.4500000000014195 0  -0.1 0.4000000000013 0  -0.1 0.3500000000011588 0  -0.1 0.3000000000010178 0  -0.1 0.2500000000008986 0  -0.1 0.2000000000007579 0  -0.1 0.1500000000006174 0  -0.1 0.1000000000005272 0  -0.1 0.05000000000040083 0  -0.1 2.671196597248127e-13 0  -0.1 -0.0499999999998666 0  -0.0500000000000906 -0.1 0  -1.730560139634463e-13 -0.1 0  0.04999999999975802 -0.1 0  0.09999999999961506 -0.1 0  0.1499999999994613 -0.1 0  0.199999999999302 -0.1 0  0.2499999999991446 -0.1 0  0.2999999999990088 -0.1 0  0.3499999999988296 -0.1 0  0.3999999999986936 -0.1 0  0.4499999999985143 -0.1 0  0.4999999999984002 -0.1 0  0.5499999999985247 -0.1 0  0.5999999999986493 -0.1 0  0.6499999999987955 -0.1 0  0.6999999999989417 -0.1 0  0.7499999999990659 -0.1 0  0.7999999999992116 -0.1 0  0.8499999999993573 -0.1 0  0.8999999999994526 -0.1 0  0.949999999999584 -0.1 0  0.9999999999997226 -0.1 0  1.049999999999861 -0.1 0  1.1 -0.0500000000000906 0  1.1 -1.730560139634463e-13 0  1.1 0.04999999999975802 0  1.1 0.09999999999961506 0  1.1 0.1499999999994613 0  1.1 0.199999999999302 0  1.1 0.2499999999991446 0  1.1 0.2999999999990088 0  1.1 0.3499999999988296 0  1.1 0.3999999999986936 0  1.1 0.4499999999985143 0  1.1 0.4999999999984002 0  1.1 0.5499999999985247 0  1.1 0.5999999999986493 0  1.1 0.6499999999987955 0  1.1 0.6999999999989417 0  1.1 0.7499999999990659 0  1.1 0.7999999999992116 0  1.1 0.8499999999993573 0  1.1 0.8999999999994526 0  1.1 0.949999999999584 0  1.1 0.9999999999997226 0  1.1 1.049999999999861 0  1.05000000000004 1.1 0  1.000000000000079 1.1 0  0.9500000000001624 1.1 0  0.9000000000003032 1.1 0  0.850000000000444 1.1 0  0.8000000000005848 1.1 0  0.7500000000007256 1.1 0  0.7000000000008665 1.1 0  0.6500000000010508 1.1 0  0.6000000000012352 1.1 0  0.5500000000014196 1.1 0  0.500000000001539 1.1 0  0.4500000000014195 1.1 0  0.4000000000013 1.1 0  0.3500000000011588 1.1 0  0.3000000000010178 1.1 0  0.2500000000008986 1.1 0  0.2000000000007579 1.1 0  0.1500000000006174 1.1 0  0.1000000000005272 1.1 0  0.05000000000040083 1.1 0  2.671196597248127e-13 1.1 0  -0.0499999999998666 1.1 0  0.2992487766366216 0.6494074230177153 0  0.2890651281761492 0.6327193798075569 0  0.2790783158224401 0.6129569358542775 0  0.2698459153161923 0.5906417830352825 0  0.2621793245324164 0.5675009789468021 0  0.2566571816289113 0.5447400131815172 0  0.2535212959284997 0.5224267253944211 0  0.2525322807090161 0.5003826491905256 0  0.2537064892374735 0.4781367021147093 0  0.2571594915097556 0.4555066940856439 0  0.2628501823889976 0.4324726691831391 0  0.2704775799644955 0.4093014156670098 0  0.279551170530297 0.3871451874765355 0  0.2895190847023208 0.3674189924671711 0  0.2997447085902911 0.3508024760401216 0  0.3194252148416648 0.3277277014702759 0  0.3337539297027501 0.3151241662620953 0  0.3512601741424975 0.3019264730603487 0  0.3709907779504329 0.2890258919758179 0  0.3916270483925072 0.2776313023779549 0  0.4123944742486015 0.2682739554619567 0  0.4334762441015402 0.2609554210652643 0  0.4549860564486708 0.2556245927380053 0  0.4772080636476555 0.2521793244514574 0  0.4998781781237649 0.2508489346618262 0  0.5224924410709711 0.2518152529133781 0  0.5446535583483409 0.2551107071995072 0  0.5658331175932947 0.2605489420178982 0  0.586826533146161 0.2677807432654053 0  0.6075334808627452 0.2771573135619316 0  0.6283155186933579 0.2885744520509259 0  0.6484891068142979 0.3014836743490678 0  0.6662736820636224 0.314627520156707 0  0.6806807849279605 0.3272428687390034 0  0.700665541376823 0.3507270495211331 0  0.7109550373828605 0.3673276751184899 0  0.7210872996490713 0.3872281688185751 0  0.7302934950203798 0.4093728283157184 0  0.737903432985107 0.4324308197170363 0  0.743483795983922 0.4554028992473007 0  0.7468617140955316 0.4779756788983646 0  0.7480734760071256 0.5003765622860974 0  0.7470754353726554 0.52287192148673 0  0.743681113628941 0.5454765967381623 0  0.7380210503673447 0.5684544601698087 0  0.730290068057907 0.59150232216029 0  0.7210259410772338 0.6133389868114356 0  0.7109491899910835 0.6329314347477791 0  0.7006826879081428 0.6493198554572722 0  0.6806678047375658 0.6726353280862277 0  0.6661383908911587 0.6852367851053081 0  0.6482794254936286 0.6984900153375119 0  0.6282015439432402 0.7115187789355499 0  0.6076186519777385 0.7232205317472784 0  0.5870936034370678 0.732952389377675 0  0.5661071343986546 0.7404599208213548 0  0.5447862247586758 0.7460113254211679 0  0.5225573359657844 0.7493977866887686 0  0.4999207093197148 0.7505221721921661 0  0.4773367581147603 0.7493498530393722 0  0.4552758917762623 0.7459249673587146 0  0.4338535732465202 0.7404055005631615 0  0.4130667559917211 0.732770690916895 0  0.3924461854050668 0.7230635749823497 0  0.3712579330284904 0.7112971177945098 0  0.3509975853800649 0.6982530714738331 0  0.3333267173215653 0.6851112639613731 0  0.3189676070136876 0.6725531146271774 0  0.3814070331915835 0.3107751554643301 0  0.2824968885615181 0.4428624634343576 0  0.3816328288196854 0.6895844311256992 0  0.2820702706094104 0.5573387105674547 0  0.7141110047035959 0.5804199115697106 0  0.5973802550228177 0.6994592303693368 0  0.6172415707894768 0.3096067501780086 0  0.7195483041806334 0.4421952643200155 0  0.7249575453850076 0.5112624480550185 0  0.554455801233266 0.2877041630949049 0  0.4452545055567242 0.2906720180205593 0  0.4443651058297843 0.7104600441509988 0  0.5334682191580744 0.7149772253577236 0  0.2763431437946973 0.488849484359145 0  0.2938767141509136 0.3970532781815024 0  0.488642675306776 0.2885005004510719 0  0.2983361650214625 0.6016136829596946 0  0.7008772519902167 0.394990443340824 0  0.4888276642687774 0.7167963396820805 0  0.6383879086511878 0.6803761442862295 0  0.3420891798400378 0.3325638645752357 0  0.6581701264719415 0.3336865575178003 0  0.3423547059953479 0.6701382170051892 0  0.6959023159141369 0.6259018675849102 0  0.3106058374470455 0.3566871370433928 0  0.311861449509104 0.6426656933839376 0  0.6745954951015156 0.6609488332229158 0  0.6900867194588599 0.3561597172464249 0  0.3613154966306178 0.6799372014979231 0  0.3703691429719665 0.6609583968064446 0  0.3907893776049829 0.6673335974760144 0  0.377853340408678 0.6399523285978517 0  0.3996055115727556 0.6435029232950658 0  0.3851433940754276 0.6147961432034688 0  0.412656762727666 0.6158283443528026 0  0.3950539446293943 0.5844979389997994 0  0.3589970879349476 0.6109363429832964 0  0.4296961596518049 0.584997065622741 0  0.407503876210322 0.5491533662779557 0  0.3676827412409362 0.5538429818608874 0  0.3833201845531136 0.5145747352003278 0  0.3457473112075047 0.5164049200761235 0  0.3589098971467604 0.4817524907509275 0  0.3985881877384236 0.4760599761858966 0  0.3786521491100638 0.443245107998962 0  0.415422390055488 0.4372343196376228 0  0.3966564102434302 0.4066300211801572 0  0.4304597302658785 0.3956633020400953 0  0.3629596591358747 0.4089463923721291 0  0.4070316939315769 0.3731191050444503 0  0.4399283723266199 0.6168955502335944 0  0.4653366659159815 0.5919387410798516 0  0.4839513046918891 0.6159759892064534 0  0.5021999244954251 0.593133270514116 0  0.5195893350762775 0.6163769469512199 0  0.5381746169753528 0.5939209703274464 0  0.5550643326517387 0.6183887313474672 0  0.574166527500503 0.595561515485593 0  0.5908218459189226 0.6235689024389433 0  0.6098629103889099 0.5899895347310536 0  0.5957467067403
[...]
<PointData  Scalars="state"> 
<DataArray  type="Float64"  Name="state"  format="ascii">0.0000000000000000e+00  0.0000000000000000e+00  0.0000000000000000e+00  0.0000000000000000e+00  0.0000000000000000e+00  0.0000000000000000e+00  0.0000000000000000e+00  0.0000000000000000e+00  -1.7408760502164215e-02  -1.7462692725779515e-02  -1.7567692655914791e-02  -1.7427856536781201e-02  1.3459684241532266e+00  0.0000000000000000e+00  0.0000000000000000e+00  0.0000000000000000e+00  0.0000000000000000e+00  0.0000000000000000e+00  0.0000000000000000e+00  0.0000000000000000e+00  0.0000000000000000e+00  0.0000000000000000e+00  0.0000000000000000e+00  0.0000000000000000e+00  0.0000000000000000e+00  0.0000000000000000e+00  0.0000000000000000e+00  0.0000000000000000e+00  0.0000000000000000e+00  0.0000000000000000e+00  0.0000000000000000e+00  0.0000000000000000e+00  0.0000000000000000e+00  0.0000000000000000e+00  0.0000000000000000e+00  0.0000000000000000e+00  0.0000000000000000e+00  0.0000000000000000e+00  0.0000000000000000e+00  0.0000000000000000e+00  0.0000000000000000e+00  0.0000000000000000e+00  0.0000000000000000e+00  0.0000000000000000e+00  0.0000000000000000e+00  0.0000000000000000e+00  0.0000000000000000e+00  0.0000000000000000e+00  0.0000000000000000e+00  0.0000000000000000e+00  0.0000000000000000e+00  0.0000000000000000e+00  0.0000000000000000e+00  0.0000000000000000e+00  0.0000000000000000e+00  0.0000000000000000e+00  0.0000000000000000e+00  0.0000000000000000e+00  0.0000000000000000e+00  0.0000000000000000e+00  0.0000000000000000e+00  0.0000000000000000e+00  0.0000000000000000e+00  0.0000000000000000e+00  0.0000000000000000e+00  0.0000000000000000e+00  0.0000000000000000e+00  0.0000000000000000e+00  0.0000000000000000e+00  0.0000000000000000e+00  0.0000000000000000e+00  0.0000000000000000e+00  0.0000000000000000e+00  0.0000000000000000e+00  0.0000000000000000e+00  0.0000000000000000e+00  0.0000000000000000e+00  0.0000000000000000e+00  0.0000000000000000e+00  0.0000000000000000e+00  0.0000000000000000e+00  0.0000000000000000e+00  0.0000000000000000e+00  0.0000000000000000e+00  0.0000000000000000e+00  0.0000000000000000e+00  0.0000000000000000e+00  0.0000000000000000e+00  0.0000000000000000e+00  0.0000000000000000e+00  0.0000000000000000e+00  0.0000000000000000e+00  0.0000000000000000e+00  0.0000000000000000e+00  0.0000000000000000e+00  0.0000000000000000e+00  0.0000000000000000e+00  0.0000000000000000e+00  0.0000000000000000e+00  0.0000000000000000e+00  0.0000000000000000e+00  0.0000000000000000e+00  0.0000000000000000e+00  0.0000000000000000e+00  0.0000000000000000e+00  0.0000000000000000e+00  0.0000000000000000e+00  0.0000000000000000e+00  0.0000000000000000e+00  0.0000000000000000e+00  0.0000000000000000e+00  0.0000000000000000e+00  0.0000000000000000e+00  0.0000000000000000e+00  0.0000000000000000e+00  0.0000000000000000e+00  0.0000000000000000e+00  0.0000000000000000e+00  0.0000000000000000e+00  0.0000000000000000e+00  0.0000000000000000e+00  0.0000000000000000e+00  0.0000000000000000e+00  0.0000000000000000e+00  0.0000000000000000e+00  0.0000000000000000e+00  0.0000000000000000e+00  0.0000000000000000e+00  0.0000000000000000e+00  0.0000000000000000e+00  0.0000000000000000e+00  0.0000000000000000e+00  0.0000000000000000e+00  0.0000000000000000e+00  0.0000000000000000e+00  0.0000000000000000e+00  0.0000000000000000e+00  0.0000000000000000e+00  0.0000000000000000e+00  0.0000000000000000e+00  0.0000000000000000e+00  0.0000000000000000e+00  0.0000000000000000e+00  0.0000000000000000e+00  0.0000000000000000e+00  0.0000000000000000e+00  0.0000000000000000e+00  0.0000000000000000e+00  0.0000000000000000e+00  0.0000000000000000e+00  0.0000000000000000e+00  0.0000000000000000e+00  0.0000000000000000e+00  0.0000000000000000e+00  0.0000000000000000e+00  0.0000000000000000e+00  0.0000000000000000e+00  0.0000000000000000e+00  0.0000000000000000e+00  0.0000000000000000e+00  0.0000000000000000e+00  0.0000000000000000e+00  0.0000000000000000e+00  0.0000000000000000e+00  0.0000000000000000e+00  0.0000000000000000e+00  0.0000000000000000e+00  0.0000000000000000e+00  0.0000000000000000e+00  0.0000000000000000e+00  0.0000000000000000e+00  0.0000000000000000e+00  0.0000000000000000e+00  0.0000000000000000e+00  0.0000000000000000e+00  0.0000000000000000e+00  0.0000000000000000e+00  0.0000000000000000e+00  0.0000000000000000e+00  0.0000000000000000e+00  0.0000000000000000e+00  -1.4514837509499881e-02  -1.3500593862849063e-02  -1.1248630282389621e-02  -1.0086499921617665e-02  -9.4576429894022811e-03  -9.1275485923897528e-03  -8.7854727401638355e-03  -9.4352923959911041e-03  -8.0732800296107014e-03  -8.5514438325925632e-03  -9.8193435978385698e-03  -1.0601723863732116e-02  -1.1071574324263988e-02  -1.2933477679199966e-02  -1.4103521035465073e-02  -1.4768794071765231e-02  -1.2979351736937778e-02  -1.1063582299180297e-02  -9.6177354817078183e-03  -9.1643185806506520e-03  -7.5716142985402905e-03  -7.1822468410217815e-03  -7.4269422085472001e-03  -6.3475445981098395e-03  -6.9254565842577723e-03  -7.0491355191418725e-03  -6.8331697328317979e-03  -8.2259882153883981e-03  -7.0878454777863163e-03  -9.6715719024026391e-03  -1.0504981670628624e-02  -1.1319411841527094e-02  -1.2884315450050013e-02  -1.4800615814284136e-02  -1.4838440084066094e-02  -1.3229904261746160e-02  -1.1351278866843043e-02  -9.9690194043092623e-03  -9.5347500826114106e-03  -9.2081336749226719e-03  -9.0363872898014692e-03  -8.3460843992224226e-03  -7.9329956185241607e-03  -8.6536804372445240e-03  -9.0090374007751085e-03  -9.3962947877896472e-03  -1.1319085683013654e-02  -1.3100528209132841e-02  -1.4736544059056420e-02  -1.4535208152037134e-02  -1.2900355782923019e-02  -1.1546356548231667e-02  -1.0537244038837375e-02  -9.7027038727185537e-03  -7.5770818003127235e-03  -8.5693765777107751e-03  -6.6194141950794124e-03  -6.4607060077225449e-03  -6.5631143683711791e-03  -6.7692221684325198e-03  -7.2917595202325065e-03  -6.6293859058329805e-03  -7.9054418242895923e-03  -9.2659730487294426e-03  -9.6134389836942027e-03  -1.0976247936749353e-02  -1.2970707013348418e-02  -1.4718548721448919e-02  5.3630565848339654e-02  5.1217843506535278e-02  5.4152706011906464e-02  5.0886616137706807e-02  4.7640028161298267e-02  5.6791285495638881e-02  5.3575747864366169e-02  4.9398758106385332e-02  4.9253157894133731e-02  6.1363509351024248e-02  6.4647937726671337e-02  6.4946698105242284e-02  6.3849164944380768e-02  5.0967667390434179e-02  4.3990385860750582e-02  7.4665551489894899e-02  5.0219227251342195e-02  4.8995347773533815e-02  6.7591757881299661e-02  4.8540902582142748e-02  4.3761442395202278e-02  4.5376212458739545e-02  4.1838336721287131e-02  4.1899686621121750e-02  3.2159215220768485e-02  3.5087066566664465e-02  3.3313807768267853e-02  3.2651084375253651e-02  4.8262269885655996e-02  8.1898055594014849e-02  1.0559479140603363e-01  1.7406406834102145e-01  2.5245294333794333e-01  4.5770916460384165e-01  7.2758673608579527e-01  7.9952015728135450e-01  2.1569812041818137e-01  9.3827866268970550e-01  9.7613275614361195e-01  7.4570236014801861e-01  9.0125864019743429e-01  5.6141013906643411e-01  7.4892490011783330e-01  9.7543094124134677e-01  8.1560802253011655e-01  9.6527335034589212e-01  7.7969326392556260e-01  8.5482502658848059e-01  4.2231408367746243e-01  5.4101334290124903e-01  8.3407045319497253e-01  1.0253756530146505e+00  9.0061470343616123e-01  1.0687028116889041e+00  8.7826826183526197e-01  1.0085888101848588e+00  8.2278684059640061e-01  8.7525357260171022e-01  6.1001262035099812e-01  7.6633840479718529e-01  9.3269853843990191e-01  7.5473585025915346e-01  9.1031489701706869e-01  3.6116567040672726e-01  2.6316688113550091e-01  2.9610185854541393e-01  4.5142472449648091e-01  2.5240656083079105e-01  1.4452213689095880e-01  6.5744433297617799e-01  9.0406214701279808e-01  1.2440744122952002e-01  2.0461458398662735e-01  5.6072514468473733e-01  4.1970403016864899e-01  6.6701256073210557e-01  9.5224463608260634e-01  6.1620560115134360e-01  8.9437554906055505e-01  1.1186043468295754e+00  9.4410564747178816e-01  7.7329362047359707e-01  7.7943652427988264e-01  9.9586692320441716e-01  7.8091484854665572e-01  4.4203446714177996e-01  3.5511870365191361e-01  6.0593771004522223e-01  1.7146936979173097e-01  1.4082861712456141e-01  9.8524057925273176e-02  1.0315110545468159e-01  1.1366998367249097e+00  1.2766529287975531e-01  1.4892220563881964e-01  1.0562316875738956e-01  1.4521651852486639e-01  8.5001629135145376e-02  8.6648752037004811e-02  1.2195353808651356e-01  5.2845084866647474e-01  1.4002337773138313e-01  7.4815286564283032e-02  2.0011201152128880e-01  3.4855505853695917e-01  1.5898984744552153e-01  1.5047123261842124e-01  2.5924318042006000e-01  1.2454716932826429e-01  9.9229023538194586e-02  8.9831144769306703e-02  1.2719857884700961e-01  8.8717441831388799e-02  1.3754571403404670e-01  6.4862219293589471e-02  2.8255335012063182e-01  1.2172399756412962e+00  7.8553078684581307e-02  1.1999200168312267e+00  5.9493770395626044e-01  1.5824015406567657e-01  4.9188053772902529e-01  1.6607245429905229e-01  8.8170878733043717e-02  7.7099754667995041e-02  1.3894003161277774e-01  3.5844713755659424e-01  1.8824755506079899e-01  1.0310016851583706e-01  1.0141613248582686e+00  6.2857848444460490e-02  5.2342993516319866e-02  3.0054268914353355e-01  1.4947281700166903e-01  1.6105134839052437e-01  2.8762455112160101e-01  1.9052682521615030e-01  9.8313819711072295e-02  1.4778955041516173e-01  1.0364056453421334e-01  7.4258439071884424e-02  6.4538909135659031e-02  4.3022355190297248e-02  4.8913424725163725e-02  8.7414995692268196e-02  5.9319417187351023e-02  6.3896366003013128e-02  6.6106663622746559e-02  4.0283062933745471e-02  4.0101902759352541e-02  6.2765524449504714e-02  1.3387604488876145e-01  3.8621665729781646e-01  4.9368116953128344e-02  5.8426159041910945e-02  6.8023839442327511e-02  4.8175980847845509e-02  7.1419052163163119e-02  6.7151585082891124e-02  5.5586627618317196e-02  4.1752381302421607e-02  5.7429815076612378e-02  6.2900494315973540e-02  4.9569498658496462e-02  7.5559619582112644e-02  6.0602711255399705e-02  1.1332105287788519e-01  6.3370785844047192e-02  5.2630140970877565e-02  4.2534747840118708e-02  4.1813314957258894e-02  7.4480897028628548e-02  2.3168184592156393e-01  6.2836256199424359e-02  5.7747190501551388e-02  8.2251911096788852e-02  3.2628014495362234e-02  3.2968067949285931e-02  3.2137981105989422e-02  3.3350647334311256e-02  5.1456011510202321e-02  1.1029725892104369e+00  1.2654519365575785e+00  9.4679376673374727e-02  5.0109438285723701e-02  4.6678995291981461e-02  5.5014025224056094e-02  4.0569513089229965e-02  6.2051670522450066e-02  7.7579159873069542e-02  1.7927787435882217e-01  2.0564310876517650e-01  6.5517637292259262e-02  1.8049918849779048e-01  1.1519236561226822e+00  1.1754351213709167e+00  8.3016631330223611e-01  1.2526211314524002e-01  7.8775125172572985e-02  1.5229496862803840e-01  1.1890038410729566e-01  1.5069792812449875e-01  4.9020310864882524e-02  4.7932352705735801e-02  1.1414181782691062e+00  5.2362389846277724e-02  1.3277477944227495e-01  1.1242528556007653e-01  5.2011338320053269e-01  6.5092784496784559e-02  4.8902299745065975e-01  8.4756684803285398e-01  4.7053040175249028e-02  1.2882147535486126e+00  5.4377137746950710e-01  3.5794470296529220e-02  4.1174992910308428e-01  1.3249308436838811e-01  1.1833986742610932e-01  1.1408617961327712e+00  4.9267913578406257e-02  9.4687162964014901e-02  1.4074431993184358e-01  1.3023714710348013e+00  8.3389302234035900e-02  1.6217017249930546e-01  1.2684123660401030e+00  3.1693729366377932e-01  1.5623487487709811e-01  1.2962318535921125e+00  5.7781863919339438e-01  7.2718294514063878e-02  8.4260046685232598e-02  2.1392557389095163e-01  7.2495751560634281e-01  1.2826664873232801e-01  4.1343860698743143e-02  4.4841887165608568e-01  3.4587044970683795e-02  3.4864425339877055e-02  3.3868194734945234e-02  3.5221835067644286e-02  8.6070166833719389e-02  5.5933935301477243e-02  6.8596051101282945e-02  5.6123887300960337e-02  1.2178515559179764e-01  7.1086550282263272e-01  6.7320963184873572e-02  7.6587603095938289e-02  2.0097026920199962e-01  8.2396554047943382e-01  6.8549956221929986e-01  8.4341552925060481e-01  6.7007570561269617e-02  8.2086905896397100e-01  1.3115108011243803e-01  7.1925576220520804e-01  1.2963154126504750e+00  1.3517032443813315e-01  5.6278369976607712e-01  2.5082305028924740e-01  1.3768955895143256e-01  4.1268002574163892e-01  8.0554072419164768e-01  1.1786976634579123e+00  4.2720157278559247e-02  -1.7847671191022815e-02  -1.7675179305716701e-02  -1.9433242064155316e-02  -2.1744072128405616e-02  -1.9500477965562677e-02  -2.2103560308157372e-02  -1.7910611509025946e-02  -1.9255628169096418e-02  -1.7936099402802066e-02  -1.9407151361883243e-02  -2.1888262795951519e-02  -2.1877026921233209e-02  -1.3874501859346484e-02  -1.3257646804273883e-02  -1.4458127414870623e-02  -1.3555290025608069e-02  -1.8794581887782390e-02  -2.1600267379009351e-02  -2.1671821479737462e-02  -1.8648415583066853e-02  -2.4401623691979794e-02  -2.6377199148418514e-02  -1.9023889224470653e-02  -1.9087841862120807e-02  -2.2990236053070493e-02  -2.6154470022865899e-02  -2.6986347332778986e-02  -2.6831106463658504e-02  -2.7691218929701007e-02  -2.7648084619753842e-02  -1.4946510360664885e-02  -1.4595285423499228e-02  -1.4927936506355861e-02  -1.4568793235922320e-02  -1.4676781662154600e-02  -1.4598727227754267e-02  -1.4736150800380965e-02  -2.7651150341062337e-02  -2.7733776534990040e-02  -2.7055771294474912e-02  -2.6294795823290588e-02  -1.5578451384898405e-02  -1.5220712766948993e-02  -1.5093978248259041e-02  -1.4972975513597548e-02  -1.5272990298524860e-02  -1.4990481736365207e-02  -1.5989371785972744e-02  -1.4467740268235165e-02  -2.6502182071884751e-02  -2.6002156940483447e-02  -1.4895394551014015e-02  -1.4512571168167203e-02  -1.4915821183525418e-02  -2.4557623809731310e-02  -2.6409550109479960e-02  -2.6502467430740823e-02  -2.7185754308681424e-02  -2.7552083515823944e-02  -2.7821102536708948e-02  -2.7561602050334446e-02  -2.7686687661265426e-02  -2.7594333891240504e-02  -2.7232195971462932e-02  -2.4420394378635274e-02  -2.6385534540843400e-02  -2.6410575874203548e-02  -2.7105141671732308e-02  -2.6620808060897869e-02  -2.7449889265344179e-02  -2.7734028363861799e-02  -2.7607736683632821e-02  -2.7498056878135797e-02  -2.7165727224437948e-02  -2.0190369937849197e-02  -2.4456212912966208e-02  -2.6417560999695788e-02  -2.6195153683636375e-02  -2.7043937573340372e-02  -2.6875292197298825e-02  -2.7723864122684603e-02  -2.7702647040363342e-02  -2.7705797567553678e-02  -2.7712383411517320e-02  -1.8075236433960216e-02  -1.8655353931263309e-02  -1.9813963566479645e-02  -1.9826755769929837e-02  -2.7477228867465051e-02  -2.6930464327343882e-02  -2.6856853199009587e-02  -2.6974322164181812e-02  -2.7045561528210301e-02  -2.7106107264335634e-02  -1.4504809273274921e-02  -2.6710874902374802e-02  -2.7475936467398134e-02  -2.6900440252555224e-02  -2.6656869730230574e-02  -2.7269136298345747e-02  -2.7364237233013036e-02  -2.0191878548427994e-02  -2.5274872041595457e-02  -2.5432250093272171e-02  -1.2494570168055628e-02  -1.2193140036117937e-02  -1.2424870853414963e-02  -2.5242136385559548e-02  -2.5337046214020883e-02  -2.4815094410747800e-02  -2.4535583540113620e-02  -2.5927253151529012e-02  -2.6606528706866087e-02  -2.5817743397054799e-02  -2.6451193260199977e-02  -2.5129419555076839e-02  -2.6292806250482286e-02  -2.4701280652364682e-02  -2.5505895801352756e-02  -2.4104242736537228e-02  -2.4443546629219028e-02  -2.5285091179337863e-02  -2.6344190917862945e-02  -2.4776383708973018e-02  -2.5444827662689677e-02  -2.4138163932305782e-02  -2.4542074201880221e-02  -2.3482103212676839e-02  -2.3791103999432951e-02  -2.2952105564916715e-02  -2.3288830381705622e-02  -2.2595029184296449e-02  -2.3071788616940894e-02  -2.2478641382179611e-02  -2.3157693420101214e-02  -2.3389614896085108e-02  -2.3672277775561103e-02  -2.2833444569456410e-02  -2.3163989750664533e-02  -2.2465045978782704e-02  -2.2940678460233545e-02  -2.2335410194199511e-02  -2.3026705287745950e-02  -2.5103368678586802e-02  -2.5128864612241789e-02  -2.6693983054937392e-02  -2.6595574904780869e-02  -2.5040645973482076e-02  -2.4886751289590253e-02  -2.2678902957949592e-02  -2.3550140778794575e-02  -2.3013015187392703e-02  -2.4159569525294893e-02  -2.3428174153171430e-02  -2.2535943984292910e-02  -2.3412284183913758e-02  -2.2864788206530838e-02  -2.4026040647724858e-02  -2.3297567249844369e-02  -2.7219328134241546e-02  -2.5791363266721618e-02  -2.5450345638000613e-02  -2.3751945065876100e-02  -2.4441917948885884e-02  -2.3853932097335877e-02  -2.4531562932581536e-02  -2.2882796369102898e-02  -2.2984644223381479e-02  -2.3006638321420862e-02  -2.3148963969329771e-02  -2.3283087395548564e-02  -2.0904187041516836e-02  -2.3391192884287971e-02  -2.4478810962371741e-02  -2.3406045575311583e-02  -2.2585407454688566e-02  -2.0761506827521620e-02  -2.4521453950212053e-02  -2.3062243296376298e-02  -2.4623560006103083e-02  -2.2332382563975583e-02  -2.4748698388431224e-02  -2.2456731139941458e-02  -2.2349951513993997e-02  -2.2115770522526397e-02  -2.4268628729657356e-02  -2.1873070292949270e-02  -2.4052251939227848e-02  -1.8867210940238077e-02  -2.6629411259645810e-02  -9.6793359207392096e-03  -2.5389646365685761e-02  -2.6728992409058742e-02  -2.1789592695692910e-02  -2.1869595421891163e-02  -2.3501008274781774e-02  -2.1876577796348249e-02  -2.5677783711995451e-02  -2.5545993237350066e-02  -2.5307580221817162e-02  -2.6328853017374070e-02  -2.5597449330127763e-02  -2.6070467245991904e-02  -2.5331209921750270e-02  -2.4694886039844988e-02  -2.4234701975596087e-02  -2.5510068558848055e-02  -2.4475813701712479e-02  -2.3678098848020600e-02  -2.3667010883208665e-02  -2.3150251608589831e-02  -2.3195186684630352e-02  -2.2888214845012102e-02  -2.2969270457793015e-02  -2.3517411803833928e-02  -2.3333879911607514e-02  -2.1943159166922153e-02  -2.4039192440322852e-02  -2.4022385768220945e-02  -2.3439019125450846e-02  -1.9260959123065344e-02  -2.2943679373207692e-02  -2.2057414860266931e-02  -2.2428743471621052e-02  -2.1918838060026629e-02  -9.2048570163901153e-03  -9.9835109697364293e-03  -9.4988200959288203e-03  -2.6001306570881445e-02  -2.3341695031813658e-02  -2.6842437599379553e-02  -2.4696880592950061e-02  -2.5994296086505660e-02  -1.9515391994477653e-02  -2.0195838368707728e-02  -2.0415972078214863e-02  -2.3557235296193708e-02  -2.4830858611056529e-02  -2.5676838618484604e-02  -2.4817876293920960e-02  -2.3570570137018847e-02  -2.3848400558228625e-02  -2.4040581367062611e-02  -2.3495676034461843e-02  -2.3136872031355438e-02  -2.3120396911337621e-02  -2.2249608011604669e-02  -2.2854120310049596e-02  -2.2913326984457368e-02  -2.3044180177511950e-02  -2.2715796567403145e-02  -2.3367358304775314e-02  -2.2653944726377755e-02  -2.3762167161746964e-02  -2.3776165933202559e-02  -2.4474520100318049e-02  -2.4040870666130466e-02  -2.5326035709502731e-02  -2.4072480704838983e-02  -2.5910138376766360e-02  -2.3565658128339231e-02  -2.5363340122150486e-02  -2.3315936357123746e-02  -2.4278611458919699e-02  -2.2663850266457976e-02  -2.6046500564134305e-02  -2.5594985190434499e-02  -2.1996061598890667e-02  -2.0534282574855459e-02  -2.3374769955678446e-02  -2.2734080128510328e-02  -2.5954662733969264e-02  -2.2800099737678728e-02  -2.5294291274261558e-02  -2.1585193822972980e-02  -2.1498345492168849e-02  -2.3510741882187550e-02  -2.5948474572755641e-02  -2.1032324472378978e-02  -2.4344847303349768e-02  -2.2421431455265241e-02  -2.0988760150167721e-02  -2.1323022737845379e-02  -2.1564260617388399e-02  -2.3997490826718093e-02  -2.2183041805508952e-02  -2.3154336720705722e-02  -2.2629204846104180e-02  -2.3879446766422733e-02  -2.4552959347983287e-02  -2.0794510918322868e-02  -2.1583700207426993e-02  -1.7510540079131359e-02  -2.2116529468633538e-02  -2.3017660432652798e-02  -2.5003150013598475e-02  -2.2782635055436463e-02  -2.1662267834857921e-02  -1.7397