<?xml version="1.0"?>
<VTKFile type="UnstructuredGrid"  version="0.1"  >
<UnstructuredGrid>
<Piece  NumberOfPoints="1297" NumberOfCells="2496">
<Points>
<DataArray  type="Float64"  NumberOfComponents="3"  format="ascii">0 0 0  0 1 0  1 1 0  1 0 0  1.1 -0.1 0  -0.1 -0.1 0  1.1 1.1 0  -0.1 1.1 0  0.3093003343278301 0.6607776312555773 0  0.3097065872304957 0.339441045976877 0  0.6904348837209023 0.3390821025359176 0  0.6904536968831043 0.6608430821071615 0  0.5000869263238363 0.5001241973020524 0  0 0.9499999999997918 0  0 0.8999999999995836 0  0 0.8499999999996529 0  0 0.7999999999999998 0  0 0.7500000000003466 0  0 0.7000000000006934 0  0 0.6500000000010401 0  0 0.6000000000013869 0  0 0.5500000000017335 0  0 0.5000000000020587 0  0 0.4500000000018723 0  0 0.4000000000016644 0  0 0.3500000000014564 0  0 0.3000000000012483 0  0 0.2500000000010403 0  0 0.2000000000008322 0  0 0.1500000000006241 0  0 0.100000000000416 0  0 0.05000000000020799 0  0.04999999999989965 0 0  0.09999999999981467 0 0  0.1499999999997036 0 0  0.1999999999995579 0 0  0.2499999999994121 0 0  0.2999999999992664 0 0  0.3499999999991206 0 0  0.3999999999989749 0 0  0.4499999999988292 0 0  0.4999999999986943 0 0  0.5499999999988151 0 0  0.5999999999989468 0 0  0.6499999999990784 0 0  0.69999999999921 0 0  0.7499999999993417 0 0  0.7999999999994734 0 0  0.8499999999996051 0 0  0.8999999999997368 0 0  0.9499999999998684 0 0  1 0.04999999999989965 0  1 0.09999999999981467 0  1 0.1499999999997036 0  1 0.1999999999995579 0  1 0.2499999999994121 0  1 0.2999999999992664 0  1 0.3499999999991206 0  1 0.3999999999989749 0  1 0.4499999999988292 0  1 0.4999999999986943 0  1 0.5499999999988151 0  1 0.5999999999989468 0  1 0.6499999999990784 0  1 0.69999999999921 0  1 0.7499999999993417 0  1 0.7999999999994734 0  1 0.8499999999996051 0  1 0.8999999999997368 0  1 0.9499999999998684 0  0.9499999999997918 1 0  0.8999999999995836 1 0  0.8499999999996529 1 0  0.7999999999999998 1 0  0.7500000000003466 1 0  0.7000000000006934 1 0  0.6500000000010401 1 0  0.6000000000013869 1 0  0.5500000000017335 1 0  0.5000000000020587 1 0  0.4500000000018723 1 0  0.4000000000016644 1 0  0.3500000000014564 1 0  0.3000000000012483 1 0  0.2500000000010403 1 0  0.2000000000008322 1 0  0.1500000000006241 1 0  0.100000000000416 1 0  0.05000000000020799 1 0  -0.1 1.05000000000004 0  -0.1 1.000000000000079 0  -0.1 0.9500000000001624 0  -0.1 0.9000000000003032 0  -0.1 0.850000000000444 0  -0.1 0.8000000000005848 0  -0.1 0.7500000000007256 0  -0.1 0.7000000000008665 0  -0.1 0.6500000000010508 0  -0.1 0.6000000000012352 0  -0.1 0.5500000000014196 0  -0.1 0.500000000001539 0  -0.1 0.4500000000014195 0  -0.1 0.4000000000013 0  -0.1 0.3500000000011588 0  -0.1 0.3000000000010178 0  -0.1 0.2500000000008986 0  -0.1 0.2000000000007579 0  -0.1 0.1500000000006174 0  -0.1 0.1000000000005272 0  -0.1 0.05000000000040083 0  -0.1 2.671196597248127e-13 0  -0.1 -0.0499999999998666 0  -0.0500000000000906 -0.1 0  -1.730560139634463e-13 -0.1 0  0.04999999999975802 -0.1 0  0.09999999999961506 -0.1 0  0.1499999999994613 -0.1 0  0.199999999999302 -0.1 0  0.2499999999991446 -0.1 0  0.2999999999990088 -0.1 0  0.3499999999988296 -0.1 0  0.3999999999986936 -0.1 0  0.4499999999985143 -0.1 0  0.4999999999984002 -0.1 0  0.5499999999985247 -0.1 0  0.5999999999986493 -0.1 0  0.6499999999987955 -0.1 0  0.6999999999989417 -0.1 0  0.7499999999990659 -0.1 0  0.7999999999992116 -0.1 0  0.8499999999993573 -0.1 0  0.8999999999994526 -0.1 0  0.949999999999584 -0.1 0  0.9999999999997226 -0.1 0  1.049999999999861 -0.1 0  1.1 -0.0500000000000906 0  1.1 -1.730560139634463e-13 0  1.1 0.04999999999975802 0  1.1 0.09999999999961506 0  1.1 0.1499999999994613 0  1.1 0.199999999999302 0  1.1 0.2499999999991446 0  1.1 0.2999999999990088 0  1.1 0.3499999999988296 0  1.1 0.3999999999986936 0  1.1 0.4499999999985143 0  1.1 0.4999999999984002 0  1.1 0.5499999999985247 0  1.1 0.5999999999986493 0  1.1 0.6499999999987955 0  1.1 0.6999999999989417 0  1.1 0.7499999999990659 0  1.1 0.7999999999992116 0  1.1 0.8499999999993573 0  1.1 0.8999999999994526 0  1.1 0.949999999999584 0  1.1 0.9999999999997226 0  1.1 1.049999999999861 0  1.05000000000004 1.1 0  1.000000000000079 1.1 0  0.9500000000001624 1.1 0  0.9000000000003032 1.1 0  0.850000000000444 1.1 0  0.8000000000005848 1.1 0  0.7500000000007256 1.1 0  0.7000000000008665 1.1 0  0.6500000000010508 1.1 0  0.6000000000012352 1.1 0  0.5500000000014196 1.1 0  0.500000000001539 1.1 0  0.4500000000014195 1.1 0  0.4000000000013 1.1 0  0.3500000000011588 1.1 0  0.3000000000010178 1.1 0  0.2500000000008986 1.1 0  0.2000000000007579 1.1 0  0.1500000000006174 1.1 0  0.1000000000005272 1.1 0  0.05000000000040083 1.1 0  2.671196597248127e-13 1.1 0  -0.0499999999998666 1.1 0  0.2999569381313971 0.6487438656918892 0  0.2894799056057886 0.6322260666200946 0  0.2791442484116468 0.6126625623752823 0  0.2696375478835173 0.5904937022816584 0  0.261836715682541 0.567422798776799 0  0.256284735407744 0.5446918448825224 0  0.2531514970840202 0.522407953675222 0  0.2521585765589001 0.5003892384644839 0  0.2533192605098158 0.4781546083552833 0  0.2567579642668281 0.4555263510751137 0  0.2624747689657183 0.432508230569669 0  0.2702305178333902 0.409402902445295 0  0.27955911810793 0.3873836278480816 0  0.2898616532025871 0.3678442436440295 0  0.3003830450427406 0.351399980832346 0  0.3200908137915108 0.3282557981539092 0  0.3341735655400733 0.3153671267670468 0  0.3514164754196213 0.3018585283160949 0  0.370961884308634 0.2887591482139145 0  0.3915098411251003 0.2773188807054164 0  0.4122685370110321 0.2680019192984899 0  0.433374840718721 0.2607505805818605 0  0.454922845612157 0.2554862783021617 0  0.4771860258537406 0.2521012191416997 0  0.4998926842767944 0.2508026532486213 0  0.5225330229728342 0.2517616560891398 0  0.544713258555501 0.2550093892737836 0  0.5659143219001102 0.2603692713996573 0  0.5869214198908841 0.2675288001029426 0  0.6076250585291044 0.2768641986416495 0  0.6283315159600583 0.2883351758153104 0  0.6483239765437597 0.3014470346230595 0  0.6658468165075141 0.3149003390231345 0  0.6799969457034408 0.327795009904197 0  0.6999823067293284 0.3513472232621457 0  0.7105779817540674 0.3677668056698404 0  0.7210593195613382 0.3874626214119534 0  0.7305249745850907 0.4094490413130982 0  0.7382565162820633 0.432430349502718 0  0.7438582403948308 0.4553814260610485 0  0.7472163074713709 0.4779484497007307 0  0.7484099580951747 0.5003457344644124 0  0.7474189378231728 0.5228428192038763 0  0.7440557697125069 0.5454524718590045 0  0.7383923863667138 0.5684168430487792 0  0.7305438605277751 0.5913953832734806 0  0.7210013803855414 0.6130797033052015 0  0.7105690962420069 0.6324621332219521 0  0.6999995053486717 0.6486640553517469 0  0.6799636628699406 0.6720621027355826 0  0.6656732182073873 0.6849614645808734 0  0.6480807825030876 0.6985391535060209 0  0.6282030888510249 0.7117903842146915 0  0.6077140262658272 0.7235606618200721 0  0.5872010163765988 0.7332570946226999 0  0.5661971818751826 0.7406870435995127 0  0.5448428696728207 0.7461469611689743 0  0.5225833646628057 0.7494651127788358 0  0.4999207896933632 0.7505617293410487 0  0.4773136378591145 0.7494058846838216 0  0.4552326450543135 0.7460370220112442 0  0.4337917709129797 0.7405985284349077 0  0.4129876939953697 0.7330538749783242 0  0.3923700495009809 0.7234000428256946 0  0.3712494836954652 0.7115733894002148 0  0.3511640274609756 0.6983004531210277 0  0.3337622803431233 0.6848272232883069 0  0.3196646227018368 0.6719750966781909 0  0.3814561668381172 0.3106666635974027 0  0.2822487610879228 0.4429172443784251 0  0.3817025570054532 0.6896904661161581 0  0.2818478836557116 0.5572525953844797 0  0.714275316467883 0.5803046218309249 0  0.5973841480310584 0.6996320709847496 0  0.617185379203851 0.309510982785999 0  0.7197840186995316 0.4422233555622251 0  0.7252203416817563 0.5112340704458586 0  0.5544873049960501 0.2875926337346302 0  0.4452171941481201 0.2905487829594195 0  0.4443472368933471 0.7105834540602038 0  0.5334901255751155 0.715076774063324 0  0.2760601204518456 0.4888573845441831 0  0.2938881204294697 0.3972578892133089 0  0.4886366998020827 0.2884271155069192 0  0.2984022434581121 0.6013690171122067 0  0.700798130855989 0.3952078136692193 0  0.4888247158742764 0.71686769332694 0  0.6381805923701787 0.6803395668242421 0  0.3424448693760139 0.3327991925784691 0  0.6577941450679718 0.3339521450936897 0  0.34272064477217 0.6698900601833087 0  0.6955966242961659 0.6255197398577166 0  0.3110959215196105 0.35715669013167 0  0.3123878822403669 0.642158758319314 0  0.6740359278747082 0.6604839782626447 0  0.6895530875873299 0.356654123717853 0  0.3615084676703922 0.6798971121201672 0  0.3705340378531376 0.6608930906516132 0  0.390876187925132 0.667357144004306 0  0.3779769601324098 0.6398799219843181 0  0.399675880963937 0.643491659626358 0  0.3852089795333929 0.6147404499257929 0  0.4126958833439698 0.6158124831360557 0  0.3950785891900042 0.5844579909557623 0  0.3591058530938433 0.6108085256525475 0  0.4297129911837195 0.5849835812784979 0  0.4075064233018111 0.549129525876158 0  0.3676760700430823 0.5537909787238913 0  0.3833026915165909 0.5145589543959472 0  0.3456969672097423 0.5163793483605884 0  0.3588727662498258 0.4817632679314409 0  0.3985780206221132 0.4760669447968782 0  0.3786470253646924 0.4432777753981528 0  0.4154272684780866 0.437248150754778 0  0.3966808387561758 0.406659383606893 0  0.4304773587836347 0.3956663080015896 0  0.3629957765905845 0.4090208748049334 0  0.4070710667647211 0.3731284612795152 0  0.4399521479033194 0.6168976031264314 0  0.465346163359563 0.5919389236530666 0  0.4839576866115745 0.6159865170624136 0  0.5022000218257819 0.5931372064146281 0  0.519583942114229 0.6163878522774113 0  0.5381651459869927 0.5939217385422098 0  0.5550445189613141 0.6183943644102947 0  0.5741458388581517 0.5955496757422678 0  0.590776488962433 0.6235553486306067 0  0.6098337152322489 0.5899469203544052 0  0.5957417822056711 0.55619
[...]
<PointData  Scalars="state"> 
<DataArray  type="Float64"  Name="state"  format="ascii">0.0000000000000000e+00  0.0000000000000000e+00  0.0000000000000000e+00  0.0000000000000000e+00  0.0000000000000000e+00  0.0000000000000000e+00  0.0000000000000000e+00  0.0000000000000000e+00  -1.7148400329151572e-02  -1.7206375824498500e-02  -1.7314926852158168e-02  -1.7168572998351062e-02  1.3457497570285060e+00  0.0000000000000000e+00  0.0000000000000000e+00  0.0000000000000000e+00  0.0000000000000000e+00  0.0000000000000000e+00  0.0000000000000000e+00  0.0000000000000000e+00  0.0000000000000000e+00  0.0000000000000000e+00  0.0000000000000000e+00  0.0000000000000000e+00  0.0000000000000000e+00  0.0000000000000000e+00  0.0000000000000000e+00  0.0000000000000000e+00  0.0000000000000000e+00  0.0000000000000000e+00  0.0000000000000000e+00  0.0000000000000000e+00  0.0000000000000000e+00  0.0000000000000000e+00  0.0000000000000000e+00  0.0000000000000000e+00  0.0000000000000000e+00  0.0000000000000000e+00  0.0000000000000000e+00  0.0000000000000000e+00  0.0000000000000000e+00  0.0000000000000000e+00  0.0000000000000000e+00  0.0000000000000000e+00  0.0000000000000000e+00  0.0000000000000000e+00  0.0000000000000000e+00  0.0000000000000000e+00  0.0000000000000000e+00  0.0000000000000000e+00  0.0000000000000000e+00  0.0000000000000000e+00  0.0000000000000000e+00  0.0000000000000000e+00  0.0000000000000000e+00  0.0000000000000000e+00  0.0000000000000000e+00  0.0000000000000000e+00  0.0000000000000000e+00  0.0000000000000000e+00  0.0000000000000000e+00  0.0000000000000000e+00  0.0000000000000000e+00  0.0000000000000000e+00  0.0000000000000000e+00  0.0000000000000000e+00  0.0000000000000000e+00  0.0000000000000000e+00  0.0000000000000000e+00  0.0000000000000000e+00  0.0000000000000000e+00  0.0000000000000000e+00  0.0000000000000000e+00  0.0000000000000000e+00  0.0000000000000000e+00  0.0000000000000000e+00  0.0000000000000000e+00  0.0000000000000000e+00  0.0000000000000000e+00  0.0000000000000000e+00  0.0000000000000000e+00  0.0000000000000000e+00  0.0000000000000000e+00  0.0000000000000000e+00  0.0000000000000000e+00  0.0000000000000000e+00  0.0000000000000000e+00  0.0000000000000000e+00  0.0000000000000000e+00  0.0000000000000000e+00  0.0000000000000000e+00  0.0000000000000000e+00  0.0000000000000000e+00  0.0000000000000000e+00  0.0000000000000000e+00  0.0000000000000000e+00  0.0000000000000000e+00  0.0000000000000000e+00  0.0000000000000000e+00  0.0000000000000000e+00  0.0000000000000000e+00  0.0000000000000000e+00  0.0000000000000000e+00  0.0000000000000000e+00  0.0000000000000000e+00  0.0000000000000000e+00  0.0000000000000000e+00  0.0000000000000000e+00  0.0000000000000000e+00  0.0000000000000000e+00  0.0000000000000000e+00  0.0000000000000000e+00  0.0000000000000000e+00  0.0000000000000000e+00  0.0000000000000000e+00  0.0000000000000000e+00  0.0000000000000000e+00  0.0000000000000000e+00  0.0000000000000000e+00  0.0000000000000000e+00  0.0000000000000000e+00  0.0000000000000000e+00  0.0000000000000000e+00  0.0000000000000000e+00  0.0000000000000000e+00  0.0000000000000000e+00  0.0000000000000000e+00  0.0000000000000000e+00  0.0000000000000000e+00  0.0000000000000000e+00  0.0000000000000000e+00  0.0000000000000000e+00  0.0000000000000000e+00  0.0000000000000000e+00  0.0000000000000000e+00  0.0000000000000000e+00  0.0000000000000000e+00  0.0000000000000000e+00  0.0000000000000000e+00  0.0000000000000000e+00  0.0000000000000000e+00  0.0000000000000000e+00  0.0000000000000000e+00  0.0000000000000000e+00  0.0000000000000000e+00  0.0000000000000000e+00  0.0000000000000000e+00  0.0000000000000000e+00  0.0000000000000000e+00  0.0000000000000000e+00  0.0000000000000000e+00  0.0000000000000000e+00  0.0000000000000000e+00  0.0000000000000000e+00  0.0000000000000000e+00  0.0000000000000000e+00  0.0000000000000000e+00  0.0000000000000000e+00  0.0000000000000000e+00  0.0000000000000000e+00  0.0000000000000000e+00  0.0000000000000000e+00  0.0000000000000000e+00  0.0000000000000000e+00  0.0000000000000000e+00  0.0000000000000000e+00  0.0000000000000000e+00  0.0000000000000000e+00  0.0000000000000000e+00  0.0000000000000000e+00  0.0000000000000000e+00  0.0000000000000000e+00  0.0000000000000000e+00  0.0000000000000000e+00  0.0000000000000000e+00  0.0000000000000000e+00  0.0000000000000000e+00  0.0000000000000000e+00  0.0000000000000000e+00  0.0000000000000000e+00  0.0000000000000000e+00  -1.4230122760671376e-02  -1.3347316337473616e-02  -1.1237187633256542e-02  -1.0184228222539591e-02  -9.5930671734053008e-03  -9.2615632776539922e-03  -8.9058071323725591e-03  -9.5491857987368041e-03  -8.1886314184455942e-03  -8.6770199108980300e-03  -9.9695575404549746e-03  -1.0708167119418516e-02  -1.1069842359044709e-02  -1.2784599543607842e-02  -1.3824753909045773e-02  -1.4509433986287892e-02  -1.2856015704943666e-02  -1.1099935008683209e-02  -9.7515452902828328e-03  -9.3177672851081014e-03  -7.6836988067715559e-03  -7.2477703980976770e-03  -7.4464687319100598e-03  -6.3388865710329026e-03  -6.9054638916607371e-03  -7.0368759066614531e-03  -6.8504427113986665e-03  -8.2876052396650326e-03  -7.1932312893734935e-03  -9.8172422535311998e-03  -1.0641915330549076e-02  -1.1360923386699053e-02  -1.2772755139072242e-02  -1.4546230582615336e-02  -1.4566912449047991e-02  -1.3085159690328424e-02  -1.1358599363127603e-02  -1.0084453112465787e-02  -9.6879890748024586e-03  -9.3419881929080618e-03  -9.1435836667581212e-03  -8.4400063020134905e-03  -8.0352363992679879e-03  -8.7862425273230946e-03  -9.1626647395118693e-03  -9.5134343070930934e-03  -1.1322137635221614e-02  -1.2948553717193707e-02  -1.4458760891364907e-02  -1.4264965918888000e-02  -1.2774790617790518e-02  -1.1578561631800084e-02  -1.0685010469205544e-02  -9.8597991324122693e-03  -7.6903507825795787e-03  -8.6445067646556163e-03  -6.6455268065368500e-03  -6.4508267174063902e-03  -6.5406878529222648e-03  -6.7574543565127746e-03  -7.3090382039421439e-03  -6.6859693953487962e-03  -8.0095594561792969e-03  -9.4256226027477491e-03  -9.7658485269223414e-03  -1.1021127993389793e-02  -1.2859769494488207e-02  -1.4455604173717431e-02  5.3293673759969878e-02  5.0900084441471011e-02  5.3783199616474757e-02  5.0600987988678153e-02  4.7306964708548283e-02  5.6401902215268855e-02  5.3221970346239253e-02  4.9092749714699346e-02  4.9131444676976707e-02  6.1332874705103423e-02  6.4521799077270084e-02  6.4890299102713433e-02  6.3887258929910040e-02  5.0811034044136123e-02  4.3932207031859183e-02  7.4783675821246981e-02  5.0187621309441870e-02  4.8990575591811580e-02  6.7717223481022659e-02  4.8489079125789314e-02  4.4094999562078602e-02  4.5718879348260272e-02  4.2126815966732886e-02  4.2264539943222421e-02  3.2713033120639876e-02  3.5704971094331926e-02  3.3931109842062816e-02  3.3268315201181016e-02  4.8174111419383131e-02  8.1726956006343845e-02  1.0512451735989073e-01  1.7370590871110184e-01  2.5129037611132404e-01  4.5143904454016004e-01  7.2734503257389016e-01  8.0019254970318310e-01  2.1472301696795454e-01  9.3778561858477194e-01  9.7573861753134017e-01  7.4614302177639258e-01  9.0031119668096771e-01  5.6463702410769978e-01  7.4967822131081252e-01  9.7516525475122062e-01  8.1607094163693017e-01  9.6520089472763704e-01  7.7856383241580174e-01  8.5455589873431603e-01  4.1735939055166399e-01  5.3994327934015840e-01  8.3375141540657249e-01  1.0252133890574266e+00  9.0064895154391944e-01  1.0688560258258435e+00  8.7826903100778952e-01  1.0083967001140146e+00  8.2181046158919902e-01  8.7535636673584083e-01  6.0860723561824670e-01  7.6392382431721961e-01  9.3275823895473475e-01  7.5509821365487628e-01  9.0958313086536358e-01  3.5700518319372143e-01  2.6371766833443311e-01  2.9691958993547135e-01  4.5330185841615922e-01  2.5326873224674984e-01  1.4483875343516728e-01  6.5935279552072501e-01  9.0351142525484929e-01  1.2397074248459486e-01  2.0493171103080515e-01  5.6163884060578995e-01  4.2176048326419840e-01  6.6791261600347895e-01  9.5231331208333292e-01  6.1682085462505376e-01  8.9407084709492990e-01  1.1186297957692630e+00  9.4374993521962480e-01  7.7315811381521538e-01  7.7931866775128866e-01  9.9559557809771349e-01  7.8000381195954893e-01  4.3565672484864004e-01  3.5074119598087522e-01  6.0634493867765249e-01  1.7148118663100789e-01  1.4073595289505789e-01  9.8708969086338236e-02  1.0321877232291672e-01  1.1366374974451829e+00  1.2738119030905298e-01  1.4924265937055181e-01  1.0512849663205592e-01  1.4552420879441569e-01  8.4991860584197221e-02  8.6965351033740021e-02  1.2224164399362222e-01  5.3006823725208885e-01  1.4048548698357707e-01  7.4649175632315226e-02  2.0104628166654040e-01  3.5008057570941675e-01  1.5861307175976666e-01  1.5050895496364142e-01  2.6113032349142795e-01  1.2433591178563906e-01  9.9135189679039323e-02  9.0213090341187144e-02  1.2720280234889186e-01  8.8410361782820635e-02  1.3706618625944747e-01  6.4702153001337803e-02  2.8104248225570405e-01  1.2168664108722751e+00  7.8317067000066451e-02  1.1996999470280085e+00  5.9783328218417964e-01  1.5906585611536306e-01  4.9563157012757209e-01  1.6633230597414417e-01  8.8177481366194230e-02  7.7024165453261226e-02  1.3866853163676926e-01  3.5363283702365056e-01  1.8784883689953402e-01  1.0307362842813436e-01  1.0143043137853063e+00  6.3334046724941168e-02  5.2737670321290855e-02  2.9646152521714231e-01  1.4932219766601426e-01  1.6082604967403535e-01  2.8635394603886144e-01  1.9043820838945252e-01  9.7868341379180449e-02  1.4733690171393965e-01  1.0394485035566718e-01  7.4068263125561695e-02  6.4893876052315433e-02  4.3588086660977382e-02  4.8844531247180675e-02  8.7414234290738954e-02  5.9120323126850984e-02  6.3954493659082567e-02  6.6438879286841224e-02  4.0829150490245825e-02  4.0429492122547435e-02  6.2540106267319928e-02  1.3368641201100689e-01  3.8740515389149000e-01  4.9347261831098582e-02  5.8039977340584852e-02  6.7798006484838094e-02  4.8056840952497022e-02  7.1177661707913883e-02  6.7143274753610482e-02  5.5251862441214508e-02  4.2075932423674890e-02  5.7719704843636123e-02  6.2992243537342008e-02  4.9271189929530765e-02  7.5253074638089487e-02  6.0353671276868644e-02  1.1290413333970380e-01  6.3305835548021008e-02  5.2281220716430689e-02  4.2870688994652038e-02  4.2417301455202061e-02  7.4275272926547092e-02  2.3252500487518218e-01  6.3139426323174069e-02  5.7377487205277675e-02  8.2141872170144153e-02  3.3204795483361617e-02  3.3561615224782362e-02  3.2737613639873438e-02  3.3964883477741674e-02  5.1172986693654006e-02  1.1027372255158732e+00  1.2652441643978127e+00  9.4623748160911833e-02  4.9807157192891367e-02  4.6403230062141074e-02  5.5260091451394093e-02  4.0907254462845072e-02  6.2102766638106904e-02  7.7374963983082162e-02  1.7989085427290288e-01  2.0495205915339407e-01  6.5625405360136724e-02  1.8112873256918335e-01  1.1520815613571478e+00  1.1750059870405836e+00  8.2994879010024980e-01  1.2523970052875144e-01  7.8605077992917577e-02  1.5270168378733193e-01  1.1849603126716415e-01  1.5084638665108552e-01  4.8851915457548835e-02  4.7784541117849320e-02  1.1408689430395216e+00  5.2738678195863670e-02  1.3279939656885950e-01  1.1211197806342056e-01  5.2162146985173019e-01  6.4890747184958575e-02  4.9150028628040682e-01  8.4612910850686518e-01  4.6826363990343227e-02  1.2880124760176177e+00  5.3641932804009151e-01  3.6349630136670717e-02  4.1388628252996462e-01  1.3258563788107899e-01  1.1811619228087594e-01  1.1409777389322420e+00  4.9047082223477589e-02  9.4248156310426948e-02  1.4120788533672590e-01  1.3022085327243271e+00  8.3215841745999539e-02  1.6193442911017497e-01  1.2682357686758154e+00  3.1859991157721596e-01  1.5669926162021819e-01  1.2960537076299639e+00  5.7869111972740073e-01  7.2447181638728944e-02  8.3844412095178511e-02  2.1318130987295328e-01  7.2542490044959129e-01  1.2840626331075417e-01  4.1141592620419977e-02  4.5083905082450432e-01  3.5348591957803314e-02  3.5533957549473021e-02  3.4583531990105700e-02  3.6005157719416550e-02  8.6087454750941442e-02  5.6199763046865824e-02  6.8358151031129299e-02  5.6045247544992641e-02  1.2162014052070251e-01  7.1239280260552107e-01  6.7770827601012995e-02  7.6705330439285110e-02  2.0080532600564191e-01  8.2358241093301854e-01  6.8675402485497017e-01  8.4322358663457120e-01  6.6734134924691643e-02  8.2025853866241816e-01  1.3073023391759467e-01  7.2081748465246853e-01  1.2961230607176295e+00  1.3461372765088706e-01  5.6521715050476584e-01  2.5050742547064048e-01  1.3812312657914375e-01  4.1694539766268357e-01  8.0519190706536825e-01  1.1785062891290989e+00  4.3212228341661219e-02  -1.7861494168467516e-02  -1.7688692924334663e-02  -1.9499229160715312e-02  -2.1744218598400721e-02  -1.9575119307518610e-02  -2.2102745663588181e-02  -1.7926067652986839e-02  -1.9324289502715516e-02  -1.7945420272307364e-02  -1.9475512595037610e-02  -2.1887660780077318e-02  -2.1872999623843817e-02  -1.3876508355773524e-02  -1.3258904136254860e-02  -1.4460261647840335e-02  -1.3557348400243013e-02  -1.8866830824591299e-02  -2.1582809153192047e-02  -2.1663533098762199e-02  -1.8723516142060449e-02  -2.4375286267830837e-02  -2.6375978500419252e-02  -1.9095384841729162e-02  -1.9156227700412188e-02  -2.2960270113565134e-02  -2.6133598691642258e-02  -2.6975794853215860e-02  -2.6809864711912518e-02  -2.7697849279336939e-02  -2.7651978184798233e-02  -1.4948384010803338e-02  -1.4596491047472753e-02  -1.4929596654922611e-02  -1.4570790422553229e-02  -1.4679604614249617e-02  -1.4601380836023059e-02  -1.4738080598037231e-02  -2.7656269875614401e-02  -2.7739500700907371e-02  -2.7060405219546873e-02  -2.6293160193638285e-02  -1.5581820040981494e-02  -1.5224176080489137e-02  -1.5097336664242459e-02  -1.4976710917304285e-02  -1.5275825969664735e-02  -1.4994191928336419e-02  -1.5991970186171305e-02  -1.4470057171720591e-02  -2.6508895242955480e-02  -2.6009576854726768e-02  -1.4897978543269715e-02  -1.4514797290335422e-02  -1.4917402705857070e-02  -2.4530993826531153e-02  -2.6409277044780681e-02  -2.6480922439600499e-02  -2.7172435055507111e-02  -2.7552673697755509e-02  -2.7824054551168244e-02  -2.7564329909884187e-02  -2.7689806925026567e-02  -2.7597963722546227e-02  -2.7236241119705646e-02  -2.4395002543848254e-02  -2.6385893319736956e-02  -2.6391762623404150e-02  -2.7095010564399297e-02  -2.6598640525823659e-02  -2.7453391153649628e-02  -2.7740082046384017e-02  -2.7613999795871265e-02  -2.7504856913931664e-02  -2.7172608021939243e-02  -2.0215469963376347e-02  -2.4432699069287894e-02  -2.6417417600923934e-02  -2.6175309827941112e-02  -2.7034566914041179e-02  -2.6854991543745696e-02  -2.7730564740460102e-02  -2.7706930315004812e-02  -2.7710941544038008e-02  -2.7718130024308903e-02  -1.8152473998550696e-02  -1.8730032305868012e-02  -1.9866377220812886e-02  -1.9884277853997413e-02  -2.7482934571743695e-02  -2.6937566553938509e-02  -2.6863930492922568e-02  -2.6980968110010980e-02  -2.7049575646507680e-02  -2.7110027125918770e-02  -1.4507098919270930e-02  -2.6717437918179491e-02  -2.7482263946388502e-02  -2.6907202267020015e-02  -2.6663442267498130e-02  -2.7275546264918824e-02  -2.7369869101982157e-02  -2.0227345351778316e-02  -2.5281978054251947e-02  -2.5436680066234913e-02  -1.2496249091315727e-02  -1.2194607177309065e-02  -1.2425957091544083e-02  -2.5247130678244384e-02  -2.5344506304154926e-02  -2.4821563096111863e-02  -2.4542835538111190e-02  -2.5933891163172806e-02  -2.6612774162870421e-02  -2.5824380306220928e-02  -2.6457698617233481e-02  -2.5136626792318352e-02  -2.6300127048688990e-02  -2.4708485153709291e-02  -2.5514604553448231e-02  -2.4111000107390566e-02  -2.4452740397615212e-02  -2.5289714906088716e-02  -2.6347935488069556e-02  -2.4781105378064792e-02  -2.5450333090008978e-02  -2.4142389769474682e-02  -2.4548352001164776e-02  -2.3485713209358071e-02  -2.3797031302193270e-02  -2.2955216585994368e-02  -2.3293293353367737e-02  -2.2597815449406800e-02  -2.3075214289148369e-02  -2.2481533479286039e-02  -2.3161872914155855e-02  -2.3395440608298779e-02  -2.3680379765757577e-02  -2.2838336422578782e-02  -2.3170132983625261e-02  -2.2469223225932328e-02  -2.2945532172789457e-02  -2.2339289997285044e-02  -2.3031940101046450e-02  -2.5110187926421945e-02  -2.5136234870976305e-02  -2.6678192949650785e-02  -2.6579729573572995e-02  -2.5047599892625779e-02  -2.4894106657492452e-02  -2.2682354896017880e-02  -2.3555857051348373e-02  -2.3017384777300986e-02  -2.4166124257780773e-02  -2.3433494708584416e-02  -2.2540036385643582e-02  -2.3418789461899996e-02  -2.2869548838735633e-02  -2.4032970568006823e-02  -2.3303185872013320e-02  -2.7225599111384745e-02  -2.5799417666112281e-02  -2.5458029425894056e-02  -2.3765876537797211e-02  -2.4458545739576204e-02  -2.3866452084559630e-02  -2.4546734209617702e-02  -2.2890822822955025e-02  -2.2990408244392961e-02  -2.3012961050623164e-02  -2.3152502204605362e-02  -2.3294817011517983e-02  -2.0904893908365026e-02  -2.3401275771813231e-02  -2.4484863638949667e-02  -2.3411452048601247e-02  -2.2591208338777161e-02  -2.0763177281803599e-02  -2.4527744988933946e-02  -2.3067524977503754e-02  -2.4643317955982770e-02  -2.2338171779560927e-02  -2.4765079327074651e-02  -2.2463360446541646e-02  -2.2356858458039270e-02  -2.2122111707074305e-02  -2.4276581715396910e-02  -2.1878784297609161e-02  -2.4059215501933923e-02  -1.8871451304762255e-02  -2.6637794036725729e-02  -9.6802908314743159e-03  -2.5390143871435178e-02  -2.6736340197015596e-02  -2.1793537242471055e-02  -2.1876194744122852e-02  -2.3510716714504588e-02  -2.1878694220284461e-02  -2.5664212308617190e-02  -2.5535541960137003e-02  -2.5295499252013125e-02  -2.6327393255651529e-02  -2.5598782951788055e-02  -2.6078455749312140e-02  -2.5340242617000935e-02  -2.4702054772939130e-02  -2.4242495748573505e-02  -2.5516677678983361e-02  -2.4491510689872521e-02  -2.3686973535636941e-02  -2.3687488639149799e-02  -2.3161116020442678e-02  -2.3218389861627119e-02  -2.2900053759355065e-02  -2.2994228621651396e-02  -2.3524716015000741e-02  -2.3340946421771560e-02  -2.1949009119615621e-02  -2.4046182974271225e-02  -2.4040445518317334e-02  -2.3461082167894130e-02  -1.9265386259596531e-02  -2.2958446397416239e-02  -2.2062923256745956e-02  -2.2434291221239619e-02  -2.1926221247547062e-02  -9.2056756906425501e-03  -9.9846446677361693e-03  -9.4994525449053797e-03  -2.5996668845662447e-02  -2.3286982669104651e-02  -2.6848820358578572e-02  -2.4703977150860094e-02  -2.6001562025368873e-02  -1.9521395358773737e-02  -2.0201117437400117e-02  -2.0421663083517682e-02  -2.3564469914019847e-02  -2.4837772305918545e-02  -2.5683364219872523e-02  -2.4827554644831332e-02  -2.3577841147577723e-02  -2.3857597536409651e-02  -2.4059197405913457e-02  -2.3516164529625377e-02  -2.3145350403548176e-02  -2.3135981084128270e-02  -2.2256900406265920e-02  -2.2865182405406356e-02  -2.2939125795779162e-02  -2.3065028640861018e-02  -2.2723644497803931e-02  -2.3382705538212506e-02  -2.2660270727446908e-02  -2.3769585436935629e-02  -2.3796647201102358e-02  -2.4484954039777625e-02  -2.4046535358684295e-02  -2.5331930589478916e-02  -2.4077295721590029e-02  -2.5914485231489908e-02  -2.3570526130679021e-02  -2.5367764056777719e-02  -2.3338154047998563e-02  -2.4300381872745080e-02  -2.2681765143259935e-02  -2.6055624298153061e-02  -2.5608859062922814e-02  -2.2003005558943300e-02  -2.0541371889795587e-02  -2.3395043011841941e-02  -2.2749979617683169e-02  -2.5957223793755032e-02  -2.2830769485106737e-02  -2.5308599613342683e-02  -2.1591601602565021e-02  -2.1526517221153802e-02  -2.3534590455453575e-02  -2.5947874765393113e-02  -2.1037333146628659e-02  -2.4350096789259746e-02  -2.2454654271666950e-02  -2.0991227938277738e-02  -2.1326238932312534e-02  -2.1588371423065304e-02  -2.4013356157967194e-02  -2.2189642739896341e-02  -2.3181112377362558e-02  -2.2660460528798713e-02  -2.3897510131084636e-02  -2.4568081471931992e-02  -2.0797025115354095e-02  -2.1586968581308572e-02  -1.7514256722333775e-02  -2.2151976158871635e-02  -2.3043953356672933e-02  -2.5010431784587960e-02  -2.2789745619686060e-02  -2.1666755912025510e-02  -1.7401