<?xml version="1.0"?>
<VTKFile type="UnstructuredGrid"  version="0.1"  >
<UnstructuredGrid>
<Piece  NumberOfPoints="1297" NumberOfCells="2496">
<Points>
<DataArray  type="Float64"  NumberOfComponents="3"  format="ascii">0 0 0  0 1 0  1 1 0  1 0 0  1.1 -0.1 0  -0.1 -0.1 0  1.1 1.1 0  -0.1 1.1 0  0.2877976139866387 0.6796268709733675 0  0.2881002229757523 0.321069445484762 0  0.7122807070444229 0.3204275099699551 0  0.7121902069571184 0.6797606321342679 0  0.5001018800795763 0.50015898723743 0  0 0.9499999999997918 0  0 0.8999999999995836 0  0 0.8499999999996529 0  0 0.7999999999999998 0  0 0.7500000000003466 0  0 0.7000000000006934 0  0 0.6500000000010401 0  0 0.6000000000013869 0  0 0.5500000000017335 0  0 0.5000000000020587 0  0 0.4500000000018723 0  0 0.4000000000016644 0  0 0.3500000000014564 0  0 0.3000000000012483 0  0 0.2500000000010403 0  0 0.2000000000008322 0  0 0.1500000000006241 0  0 0.100000000000416 0  0 0.05000000000020799 0  0.04999999999989965 0 0  0.09999999999981467 0 0  0.1499999999997036 0 0  0.1999999999995579 0 0  0.2499999999994121 0 0  0.2999999999992664 0 0  0.3499999999991206 0 0  0.3999999999989749 0 0  0.4499999999988292 0 0  0.4999999999986943 0 0  0.5499999999988151 0 0  0.5999999999989468 0 0  0.6499999999990784 0 0  0.69999999999921 0 0  0.7499999999993417 0 0  0.7999999999994734 0 0  0.8499999999996051 0 0  0.8999999999997368 0 0  0.9499999999998684 0 0  1 0.04999999999989965 0  1 0.09999999999981467 0  1 0.1499999999997036 0  1 0.1999999999995579 0  1 0.2499999999994121 0  1 0.2999999999992664 0  1 0.3499999999991206 0  1 0.3999999999989749 0  1 0.4499999999988292 0  1 0.4999999999986943 0  1 0.5499999999988151 0  1 0.5999999999989468 0  1 0.6499999999990784 0  1 0.69999999999921 0  1 0.7499999999993417 0  1 0.7999999999994734 0  1 0.8499999999996051 0  1 0.8999999999997368 0  1 0.9499999999998684 0  0.9499999999997918 1 0  0.8999999999995836 1 0  0.8499999999996529 1 0  0.7999999999999998 1 0  0.7500000000003466 1 0  0.7000000000006934 1 0  0.6500000000010401 1 0  0.6000000000013869 1 0  0.5500000000017335 1 0  0.5000000000020587 1 0  0.4500000000018723 1 0  0.4000000000016644 1 0  0.3500000000014564 1 0  0.3000000000012483 1 0  0.2500000000010403 1 0  0.2000000000008322 1 0  0.1500000000006241 1 0  0.100000000000416 1 0  0.05000000000020799 1 0  -0.1 1.05000000000004 0  -0.1 1.000000000000079 0  -0.1 0.9500000000001624 0  -0.1 0.9000000000003032 0  -0.1 0.850000000000444 0  -0.1 0.8000000000005848 0  -0.1 0.7500000000007256 0  -0.1 0.7000000000008665 0  -0.1 0.6500000000010508 0  -0.1 0.6000000000012352 0  -0.1 0.5500000000014196 0  -0.1 0.500000000001539 0  -0.1 0.4500000000014195 0  -0.1 0.4000000000013 0  -0.1 0.3500000000011588 0  -0.1 0.3000000000010178 0  -0.1 0.2500000000008986 0  -0.1 0.2000000000007579 0  -0.1 0.1500000000006174 0  -0.1 0.1000000000005272 0  -0.1 0.05000000000040083 0  -0.1 2.671196597248127e-13 0  -0.1 -0.0499999999998666 0  -0.0500000000000906 -0.1 0  -1.730560139634463e-13 -0.1 0  0.04999999999975802 -0.1 0  0.09999999999961506 -0.1 0  0.1499999999994613 -0.1 0  0.199999999999302 -0.1 0  0.2499999999991446 -0.1 0  0.2999999999990088 -0.1 0  0.3499999999988296 -0.1 0  0.3999999999986936 -0.1 0  0.4499999999985143 -0.1 0  0.4999999999984002 -0.1 0  0.5499999999985247 -0.1 0  0.5999999999986493 -0.1 0  0.6499999999987955 -0.1 0  0.6999999999989417 -0.1 0  0.7499999999990659 -0.1 0  0.7999999999992116 -0.1 0  0.8499999999993573 -0.1 0  0.8999999999994526 -0.1 0  0.949999999999584 -0.1 0  0.9999999999997226 -0.1 0  1.049999999999861 -0.1 0  1.1 -0.0500000000000906 0  1.1 -1.730560139634463e-13 0  1.1 0.04999999999975802 0  1.1 0.09999999999961506 0  1.1 0.1499999999994613 0  1.1 0.199999999999302 0  1.1 0.2499999999991446 0  1.1 0.2999999999990088 0  1.1 0.3499999999988296 0  1.1 0.3999999999986936 0  1.1 0.4499999999985143 0  1.1 0.4999999999984002 0  1.1 0.5499999999985247 0  1.1 0.5999999999986493 0  1.1 0.6499999999987955 0  1.1 0.6999999999989417 0  1.1 0.7499999999990659 0  1.1 0.7999999999992116 0  1.1 0.8499999999993573 0  1.1 0.8999999999994526 0  1.1 0.949999999999584 0  1.1 0.9999999999997226 0  1.1 1.049999999999861 0  1.05000000000004 1.1 0  1.000000000000079 1.1 0  0.9500000000001624 1.1 0  0.9000000000003032 1.1 0  0.850000000000444 1.1 0  0.8000000000005848 1.1 0  0.7500000000007256 1.1 0  0.7000000000008665 1.1 0  0.6500000000010508 1.1 0  0.6000000000012352 1.1 0  0.5500000000014196 1.1 0  0.500000000001539 1.1 0  0.4500000000014195 1.1 0  0.4000000000013 1.1 0  0.3500000000011588 1.1 0  0.3000000000010178 1.1 0  0.2500000000008986 1.1 0  0.2000000000007579 1.1 0  0.1500000000006174 1.1 0  0.1000000000005272 1.1 0  0.05000000000040083 1.1 0  2.671196597248127e-13 1.1 0  -0.0499999999998666 1.1 0  0.2814491869260377 0.6644473995875726 0  0.2773166026750136 0.6441641376258167 0  0.274352529634354 0.621362190909315 0  0.2712820294507409 0.5968216125595156 0  0.2678271353032878 0.5718670147678957 0  0.2644658631401245 0.5475272867298272 0  0.2621917984694361 0.5238058881426296 0  0.2615417612235033 0.5004445533456594 0  0.2625469286097872 0.4769798940183143 0  0.2650769714696184 0.4531176870941883 0  0.2684580814662567 0.4286132862055468 0  0.2718105835257524 0.4036409605543331 0  0.274758292270668 0.3792146214239166 0  0.2776707849399246 0.3564618671574091 0  0.2817933393918508 0.3362151954372105 0  0.3023873934984026 0.3130364322028726 0  0.321499754532456 0.3063474789075288 0  0.3434215453365846 0.2999287121580921 0  0.3666716683149187 0.2923556181252217 0  0.3896551716770402 0.283500329810712 0  0.4116278584742709 0.2746297422555968 0  0.433244524339811 0.266943562166271 0  0.4549406912435711 0.260987640666222 0  0.4771986748600188 0.2568362498338326 0  0.499926412162504 0.2551802032608583 0  0.5226799469071539 0.2562834894518614 0  0.5450715449164411 0.2601219150527235 0  0.5665737195059483 0.2663871729222307 0  0.588266806271896 0.2738633124610113 0  0.610202662260548 0.2825992878363272 0  0.6332274614042294 0.2912791758875862 0  0.6566591669984422 0.2989175645956095 0  0.6786271769791201 0.3055211512837682 0  0.6978148868554137 0.3123663803514538 0  0.7185959587077577 0.3358881137048835 0  0.7227614332399875 0.3561240770744565 0  0.7257304321198331 0.379088899594878 0  0.7287369124732196 0.4037052142202977 0  0.7322424658100352 0.4287060508675706 0  0.7356729250194567 0.4531574037626617 0  0.7381408244782828 0.4769316965284752 0  0.7390826459128986 0.5004095764056651 0  0.7382304348998634 0.5239313985187646 0  0.7355528855227309 0.5476602248834445 0  0.7319030696223792 0.5720135152613102 0  0.7283269447162518 0.5969194700367776 0  0.7255440354902608 0.6213414748489905 0  0.722670774195298 0.6441705040127148 0  0.7185155549996431 0.6643390397257871 0  0.6977585997210124 0.6878034135458719 0  0.6785726832876764 0.6945919083102635 0  0.6565357379946566 0.70118959006162 0  0.6331139519006302 0.7088180800717693 0  0.610124623779054 0.7175605106868435 0  0.5882727728124937 0.7264632665461506 0  0.5666482579878465 0.7342011817125826 0  0.5451172936023893 0.7406774877496879 0  0.5227443529362613 0.7448120588323242 0  0.4999522664178176 0.7462170417697338 0  0.4771974048060921 0.7448121189053059 0  0.4549118353111287 0.7407640928356759 0  0.4331196673605583 0.7346059948006231 0  0.4117095130962649 0.7265043910980734 0  0.3898536191648829 0.7174899842554185 0  0.3666276136833894 0.7085875784770588 0  0.3432525662045757 0.7009548626474082 0  0.321336918218207 0.6944533454039439 0  0.3021579483137976 0.6876893616866105 0  0.3771998174835253 0.3119895841594997 0  0.2864674875312505 0.4398381480716105 0  0.3772205693870854 0.6888027874334947 0  0.2860317096690374 0.5607528440165535 0  0.7124286773048994 0.5848210920747022 0  0.6001879570279194 0.6964685798700084 0  0.6217651545770273 0.3105773040816948 0  0.7154397638662466 0.4391634421382948 0  0.7185513859978897 0.511771926775095 0  0.5555375156245049 0.2914861597157488 0  0.4445253243858855 0.2944608917136397 0  0.4432958957879585 0.7067661256612019 0  0.5340133574419956 0.711305323851116 0  0.2826308533483594 0.4883587707527988 0  0.2906792540407116 0.3905949711472051 0  0.4886094912754734 0.2918235312740161 0  0.2952832076870312 0.6081845677685239 0  0.7046916010885591 0.3883522938880591 0  0.4886607638066829 0.7133582823470976 0  0.6454247420429194 0.6830398156695648 0  0.3321503541511121 0.3257807777328813 0  0.668278052259402 0.3264969819155963 0  0.3326462495813892 0.6771420932884611 0  0.7045237300803792 0.6349920560279744 0  0.2973401087956626 0.3452282236040182 0  0.2992072352109147 0.6541694378979337 0  0.688134350773013 0.672344491095146 0  0.7036256780236663 0.3443041966748455 0  0.3545870827042035 0.6826265606108582 0  0.3651572554897854 0.6632097463844492 0  0.3871509211833844 0.6674159860336162 0  0.3741924478881695 0.6417727452689357 0  0.3970527575014646 0.6438439239843192 0  0.3831194536115634 0.6160499713003624 0  0.4112432553322749 0.6161040602556862 0  0.394177996783937 0.5853759905573432 0  0.3561665953535681 0.6138730276512518 0  0.4290341655661241 0.5852121446122737 0  0.407234961057471 0.5496532375898884 0  0.3676095476952274 0.5550769508038247 0  0.3835076026140337 0.5149025901977329 0  0.3466616638946824 0.5170001220609952 0  0.3594737626785909 0.4813961671731302 0  0.3985784394312068 0.4758513417219962 0  0.378410769179393 0.4423899502882075 0  0.4149870122000177 0.4369230969682819 0  0.3955557289402769 0.4059584292397188 0  0.4295582231094534 0.3957004488888693 0  0.3615446135252905 0.4070378086757477 0  0.4052806092686088 0.3729863689408067 0  0.4389708278902685 0.6167057647507044 0  0.4649551051437646 0.5918029220144081 0  0.4837091702005161 0.6155469263095901 0  0.502245118454456 0.592896215624763 0  0.5199238175655889 0.615934136601294 0  0.5386437738824876 0.5937569509722372 0  0.5559935023043696 0.6180986331015377 0  0.5750352958467664 0.5957078023346843 0  0.5925412456179904 0.6237847862229766 0  0.6109339597474394 0.5909053493469673 0  0.5961120927051741
[...]
<PointData  Scalars="state"> 
<DataArray  type="Float64"  Name="state"  format="ascii">0.0000000000000000e+00  0.0000000000000000e+00  0.0000000000000000e+00  0.0000000000000000e+00  0.0000000000000000e+00  0.0000000000000000e+00  0.0000000000000000e+00  0.0000000000000000e+00  -2.1406396919529787e-02  -2.1517988705327076e-02  -2.1584632789795364e-02  -2.1508179589760833e-02  1.3437461347075905e+00  0.0000000000000000e+00  0.0000000000000000e+00  0.0000000000000000e+00  0.0000000000000000e+00  0.0000000000000000e+00  0.0000000000000000e+00  0.0000000000000000e+00  0.0000000000000000e+00  0.0000000000000000e+00  0.0000000000000000e+00  0.0000000000000000e+00  0.0000000000000000e+00  0.0000000000000000e+00  0.0000000000000000e+00  0.0000000000000000e+00  0.0000000000000000e+00  0.0000000000000000e+00  0.0000000000000000e+00  0.0000000000000000e+00  0.0000000000000000e+00  0.0000000000000000e+00  0.0000000000000000e+00  0.0000000000000000e+00  0.0000000000000000e+00  0.0000000000000000e+00  0.0000000000000000e+00  0.0000000000000000e+00  0.0000000000000000e+00  0.0000000000000000e+00  0.0000000000000000e+00  0.0000000000000000e+00  0.0000000000000000e+00  0.0000000000000000e+00  0.0000000000000000e+00  0.0000000000000000e+00  0.0000000000000000e+00  0.0000000000000000e+00  0.0000000000000000e+00  0.0000000000000000e+00  0.0000000000000000e+00  0.0000000000000000e+00  0.0000000000000000e+00  0.0000000000000000e+00  0.0000000000000000e+00  0.0000000000000000e+00  0.0000000000000000e+00  0.0000000000000000e+00  0.0000000000000000e+00  0.0000000000000000e+00  0.0000000000000000e+00  0.0000000000000000e+00  0.0000000000000000e+00  0.0000000000000000e+00  0.0000000000000000e+00  0.0000000000000000e+00  0.0000000000000000e+00  0.0000000000000000e+00  0.0000000000000000e+00  0.0000000000000000e+00  0.0000000000000000e+00  0.0000000000000000e+00  0.0000000000000000e+00  0.0000000000000000e+00  0.0000000000000000e+00  0.0000000000000000e+00  0.0000000000000000e+00  0.0000000000000000e+00  0.0000000000000000e+00  0.0000000000000000e+00  0.0000000000000000e+00  0.0000000000000000e+00  0.0000000000000000e+00  0.0000000000000000e+00  0.0000000000000000e+00  0.0000000000000000e+00  0.0000000000000000e+00  0.0000000000000000e+00  0.0000000000000000e+00  0.0000000000000000e+00  0.0000000000000000e+00  0.0000000000000000e+00  0.0000000000000000e+00  0.0000000000000000e+00  0.0000000000000000e+00  0.0000000000000000e+00  0.0000000000000000e+00  0.0000000000000000e+00  0.0000000000000000e+00  0.0000000000000000e+00  0.0000000000000000e+00  0.0000000000000000e+00  0.0000000000000000e+00  0.0000000000000000e+00  0.0000000000000000e+00  0.0000000000000000e+00  0.0000000000000000e+00  0.0000000000000000e+00  0.0000000000000000e+00  0.0000000000000000e+00  0.0000000000000000e+00  0.0000000000000000e+00  0.0000000000000000e+00  0.0000000000000000e+00  0.0000000000000000e+00  0.0000000000000000e+00  0.0000000000000000e+00  0.0000000000000000e+00  0.0000000000000000e+00  0.0000000000000000e+00  0.0000000000000000e+00  0.0000000000000000e+00  0.0000000000000000e+00  0.0000000000000000e+00  0.0000000000000000e+00  0.0000000000000000e+00  0.0000000000000000e+00  0.0000000000000000e+00  0.0000000000000000e+00  0.0000000000000000e+00  0.0000000000000000e+00  0.0000000000000000e+00  0.0000000000000000e+00  0.0000000000000000e+00  0.0000000000000000e+00  0.0000000000000000e+00  0.0000000000000000e+00  0.0000000000000000e+00  0.0000000000000000e+00  0.0000000000000000e+00  0.0000000000000000e+00  0.0000000000000000e+00  0.0000000000000000e+00  0.0000000000000000e+00  0.0000000000000000e+00  0.0000000000000000e+00  0.0000000000000000e+00  0.0000000000000000e+00  0.0000000000000000e+00  0.0000000000000000e+00  0.0000000000000000e+00  0.0000000000000000e+00  0.0000000000000000e+00  0.0000000000000000e+00  0.0000000000000000e+00  0.0000000000000000e+00  0.0000000000000000e+00  0.0000000000000000e+00  0.0000000000000000e+00  0.0000000000000000e+00  0.0000000000000000e+00  0.0000000000000000e+00  0.0000000000000000e+00  0.0000000000000000e+00  0.0000000000000000e+00  0.0000000000000000e+00  0.0000000000000000e+00  0.0000000000000000e+00  0.0000000000000000e+00  0.0000000000000000e+00  0.0000000000000000e+00  0.0000000000000000e+00  0.0000000000000000e+00  0.0000000000000000e+00  0.0000000000000000e+00  0.0000000000000000e+00  0.0000000000000000e+00  0.0000000000000000e+00  0.0000000000000000e+00  -1.8692703388750065e-02  -1.6098038155042228e-02  -1.1797329651252395e-02  -8.1779078475361869e-03  -5.9542163214945359e-03  -5.0912754084464730e-03  -4.7030663752560369e-03  -5.2849862259673414e-03  -3.9200592557904071e-03  -4.3684185563418300e-03  -6.2668299754455158e-03  -8.7203100391357643e-03  -1.1591914031981863e-02  -1.5568646908653257e-02  -1.8528519752140687e-02  -1.8984085498084308e-02  -1.5519752373463857e-02  -1.1172178048530995e-02  -7.1818325660470582e-03  -5.8134883028486415e-03  -4.5364846836754144e-03  -4.7336746173804057e-03  -5.7833198020667250e-03  -5.1693518696698960e-03  -5.8045775140273719e-03  -5.8589888196040512e-03  -5.2646411149235399e-03  -5.8306287609007192e-03  -4.2127823233703739e-03  -6.4485755843187624e-03  -8.3110185698063097e-03  -1.1512243862634133e-02  -1.5391001591226354e-02  -1.8948074847539579e-02  -1.9011754468970389e-02  -1.5900889798524363e-02  -1.1774213063704228e-02  -7.9435152577297281e-03  -5.9732671940105021e-03  -5.1122571885185023e-03  -4.9362897081858927e-03  -4.4027422200449400e-03  -3.9378561505236959e-03  -4.4732149843093750e-03  -5.2346380512170894e-03  -7.2399488999942046e-03  -1.1734647910335150e-02  -1.5699663531216428e-02  -1.8915636754568740e-02  -1.8776997168720805e-02  -1.5513330751930050e-02  -1.1856159084142314e-02  -8.3399603673161276e-03  -6.3485171957921357e-03  -4.4588707268597705e-03  -5.9927542013934847e-03  -4.8331912218972086e-03  -5.2753516470002227e-03  -5.5860157035759759e-03  -5.5528662292885604e-03  -5.5736511242006088e-03  -4.3564368021558773e-03  -4.9676448947312737e-03  -6.0449087131612365e-03  -7.2764058009477488e-03  -1.1150149643949876e-02  -1.5530211760242345e-02  -1.8841571523454410e-02  5.9974172748804511e-02  5.8215866925220780e-02  6.0457784536988614e-02  5.7455868933750466e-02  5.3909176825960768e-02  6.3751431583542253e-02  5.9936116527213840e-02  5.6008129609886478e-02  5.5536238644553329e-02  6.4035651490022563e-02  6.8890933059106735e-02  6.7907340589317425e-02  6.5575365520468873e-02  5.7450321349828144e-02  4.4255698192281152e-02  7.5288741157995082e-02  5.0549869428498581e-02  4.8570240371544858e-02  6.7882905228905416e-02  4.8433402896826461e-02  3.7310420682106750e-02  3.8722393855757258e-02  3.5977747724578311e-02  3.5328462517486482e-02  2.2390971261634710e-02  2.5254669313230806e-02  2.3272746706955737e-02  2.2802054123320547e-02  4.8545346894190870e-02  8.6529158975435963e-02  1.1447919613718609e-01  2.0145848460083499e-01  2.7182052756881137e-01  5.6227841531136202e-01  7.2057264416289113e-01  7.8023976688754337e-01  2.8528721051958350e-01  9.4448284312354946e-01  9.7919154864146885e-01  7.2850161223681076e-01  9.1847679982907593e-01  4.7990976864246010e-01  7.0934036025519520e-01  9.7725649940196291e-01  8.0761494824632540e-01  9.6715006618645527e-01  7.6380238866535555e-01  8.6150559080207856e-01  5.1173966308903795e-01  5.4393640892078643e-01  8.3454276483664336e-01  1.0214505767623501e+00  8.9941278660156454e-01  1.0576003437722727e+00  8.7537689685579845e-01  1.0058264478669019e+00  8.3043972737245364e-01  8.7670115139333826e-01  6.1540540852533454e-01  7.6771469389999691e-01  9.3274233507625393e-01  7.3855338011588934e-01  9.2146321349292981e-01  4.3246579647446176e-01  2.4743653565592028e-01  2.8825140050349257e-01  4.0064534843348487e-01  2.3507440825314507e-01  1.4345991842269254e-01  6.1694858448088175e-01  9.1159188673978564e-01  1.3072233088551416e-01  2.0023951821048383e-01  5.0667863885255127e-01  3.6838727282729394e-01  6.2822388267102247e-01  9.5243794430680762e-01  5.7574423178251510e-01  9.0063490858406636e-01  1.1090515785975061e+00  9.4566779315880622e-01  7.7130079750240388e-01  7.7095768377642704e-01  1.0001628086280878e+00  7.6462581077840874e-01  5.6126642425523166e-01  4.4273318092224145e-01  5.8333661997645903e-01  2.0491531884487313e-01  1.5389624844231289e-01  9.5332324918173172e-02  1.0152207067609552e-01  1.1283743527217347e+00  1.3874027133767580e-01  1.6340491896942838e-01  1.1301007837720194e-01  1.4436626872034353e-01  8.6007592065828711e-02  8.2158827145788121e-02  1.2248147230983493e-01  4.7770454106503851e-01  1.3099164685669520e-01  7.9249850102756786e-02  1.8217352434976589e-01  3.1511710231855927e-01  1.7678592303075699e-01  1.6919316056364581e-01  2.3038283906426921e-01  1.3030548041921655e-01  1.0308429272469209e-01  8.5188317280145684e-02  1.3080006257483745e-01  9.4343423079314440e-02  1.4585064299750325e-01  7.0253832557431437e-02  3.0168064369406655e-01  1.2162439793819384e+00  8.3662816878589730e-02  1.1965430417070422e+00  5.1616796663011222e-01  1.5098898758801191e-01  4.0672918729872376e-01  1.6377828071608291e-01  9.0423036369581933e-02  8.0739780000946004e-02  1.4208450924894203e-01  4.6438327954821773e-01  1.9925913022684721e-01  1.0570848811693641e-01  1.0025093521611168e+00  5.6587155299495324e-02  4.6513307835182760e-02  4.1137338899568515e-01  1.6138336029372227e-01  1.8632495049712089e-01  3.0531875447188717e-01  1.9205896523281460e-01  1.0746441323582431e-01  1.6139101399576269e-01  9.8516227038626822e-02  7.9553054554568028e-02  5.9735916324453145e-02  3.3935396226725020e-02  4.9349861864780027e-02  8.9672810718909604e-02  6.5411416121221935e-02  6.5225965879232864e-02  6.2375856575432417e-02  3.1504604190258065e-02  3.4055627086832421e-02  6.8108114657152455e-02  1.3710607765822191e-01  3.7216615495291311e-01  4.9437034916368583e-02  6.5423072703104990e-02  7.3383999777943576e-02  4.9254033886459721e-02  7.6902634871395120e-02  6.9415808391113498e-02  6.2385842103591140e-02  3.5995957554662304e-02  5.3814053859257388e-02  6.4027849221847483e-02  5.5214555342752866e-02  8.1336505779778995e-02  6.6298590802503277e-02  1.1938222101265109e-01  6.6331411221215442e-02  5.8423535811696001e-02  3.6082634880137285e-02  3.2406247912197511e-02  7.9379803684238165e-02  2.0555712815674296e-01  5.8657736899059329e-02  6.4702259203454293e-02  8.7385106782671682e-02  2.2817481138361431e-02  2.3271980864074546e-02  2.2334981433318874e-02  2.3555373673784307e-02  5.8085659079467375e-02  1.0996671573266974e+00  1.2630026495677624e+00  9.7275358930907635e-02  5.6026737840042549e-02  5.2051387636799479e-02  5.1225497936216655e-02  3.4242831847810136e-02  6.3508914520888152e-02  8.2996721946262689e-02  1.6554419133091783e-01  2.1304286037202136e-01  6.5895128152624327e-02  1.7460864845659205e-01  1.1396629006064243e+00  1.1759134076269557e+00  8.3942377287925452e-01  1.2630864214594803e-01  8.2661521317461115e-02  1.4488595995273412e-01  1.2541929911177696e-01  1.4927565746287788e-01  5.5867029043017574e-02  5.4189484032595235e-02  1.1426051008230731e+00  4.6961317534037726e-02  1.3399821776384016e-01  1.1786648046649105e-01  5.0024615769880798e-01  6.9882329403822593e-02  4.4447633339521941e-01  8.6222247859659440e-01  5.3678013334361445e-02  1.2866010682975713e+00  6.2176734751349960e-01  2.6639644593636488e-02  3.7341152320101528e-01  1.3214715653394835e-01  1.2222935342166867e-01  1.1303246137483436e+00  5.6102852507726730e-02  1.0392443537466424e-01  1.3227875402309155e-01  1.2996030971220933e+00  8.7280744757748371e-02  1.7928503126519932e-01  1.2659677080335601e+00  2.9029978764040110e-01  1.4653342565795052e-01  1.2940387107598705e+00  5.3277181096190962e-01  7.7953429734226878e-02  9.2806328910947922e-02  2.2643135132966891e-01  6.9483990922194760e-01  1.2717336500856080e-01  4.8251262944739706e-02  4.0604362183587511e-01  2.3232083009234000e-02  2.3521536724119788e-02  2.2661514750813773e-02  2.3610997110295712e-02  8.9621568435941865e-02  5.2468027852009248e-02  7.4082749193955577e-02  5.8779524532967108e-02  1.2491838801238518e-01  6.8758275543859548e-01  6.1303099249960101e-02  7.6178338377599519e-02  2.5129862679325465e-01  8.2228991646086858e-01  6.4080629252513510e-01  8.5259147100623389e-01  7.2173798165461586e-02  8.2482550495891060e-01  1.4125943982412248e-01  6.6898451639230594e-01  1.2946992761915761e+00  1.4416182443594291e-01  5.2739622072618009e-01  2.5639912575619905e-01  1.2949344224319426e-01  3.3448311934761710e-01  8.0240914873802260e-01  1.1737238432026034e+00  3.5126017747387668e-02  -1.6471538578702274e-02  -1.6318159477273997e-02  -1.7748112955982782e-02  -2.1763259567170949e-02  -1.7748057536689073e-02  -2.2095883455195559e-02  -1.6489488019633826e-02  -1.7395216429162193e-02  -1.6609090741406599e-02  -1.7651865122722182e-02  -2.1924354053558755e-02  -2.1928052504726549e-02  -1.3735000448598263e-02  -1.3135930866330593e-02  -1.4308551057956658e-02  -1.3421579161031561e-02  -1.6303725516951022e-02  -2.1545027449284396e-02  -2.1595673177108508e-02  -1.6163390127938038e-02  -2.4651295660951259e-02  -2.6073286893613514e-02  -1.6795931140137086e-02  -1.6912566147801213e-02  -2.3360923457558174e-02  -2.6025576684575068e-02  -2.6751364800733504e-02  -2.6769019904915564e-02  -2.7161959378515909e-02  -2.7192309785754577e-02  -1.4772023916052443e-02  -1.4431645866492697e-02  -1.4757588151481281e-02  -1.4396869047766386e-02  -1.4477687033773093e-02  -1.4403015375271310e-02  -1.4538953407237957e-02  -2.7120160024446088e-02  -2.7200981078537273e-02  -2.6538626897167822e-02  -2.5874613170274573e-02  -1.5255560755581203e-02  -1.4947081425634074e-02  -1.4830400235720249e-02  -1.4666004871737618e-02  -1.4950380921260435e-02  -1.4674391001132258e-02  -1.5675432160830675e-02  -1.4295082951260500e-02  -2.5870045518009640e-02  -2.5345828988369970e-02  -1.4713058985593599e-02  -1.4341652014351837e-02  -1.4743174429533025e-02  -2.4880796330330190e-02  -2.6126098665084790e-02  -2.6444137195379386e-02  -2.6995676745723150e-02  -2.7145724270223430e-02  -2.7291558511355916e-02  -2.7087998370838921e-02  -2.7178139513335871e-02  -2.7077015764758156e-02  -2.6721953808452520e-02  -2.4755206578369212e-02  -2.6090446851001137e-02  -2.6331031480439967e-02  -2.6887954726638505e-02  -2.6527521079165266e-02  -2.7028840502828718e-02  -2.7183709848239021e-02  -2.7075554960008730e-02  -2.6959836173053954e-02  -2.6637188497386378e-02  -1.9353053262427155e-02  -2.4681473881366409e-02  -2.6111634969211400e-02  -2.6058156179787084e-02  -2.6794766168869090e-02  -2.6803505836623446e-02  -2.7194134167131588e-02  -2.7242123576171697e-02  -2.7169347201180742e-02  -2.7182807209311693e-02  -1.5280837793003198e-02  -1.5973884199382178e-02  -1.8205338736502461e-02  -1.8164707914129184e-02  -2.6901165811914634e-02  -2.6423626469224033e-02  -2.6343976258629848e-02  -2.6460588926030218e-02  -2.6561986272249958e-02  -2.6605670597789614e-02  -1.4337034162530928e-02  -2.6213555319456745e-02  -2.6943265235715903e-02  -2.6390093231679648e-02  -2.6163359276824349e-02  -2.6745553251290761e-02  -2.6815212930020229e-02  -1.9135882196773552e-02  -2.4812841535472172e-02  -2.4991627117736677e-02  -1.2380083330324981e-02  -1.2084724388495772e-02  -1.2316227669033335e-02  -2.4792985103022736e-02  -2.4865330926965291e-02  -2.4240497026093592e-02  -2.3905566387031556e-02  -2.5454502824207217e-02  -2.6104913952456812e-02  -2.5346589426036882e-02  -2.5947864291204416e-02  -2.4670578515169444e-02  -2.5776647257890615e-02  -2.4246341188903474e-02  -2.4974605433450217e-02  -2.3657812885103807e-02  -2.3916049273709432e-02  -2.4845320057548328e-02  -2.5858199709303340e-02  -2.4340751907471533e-02  -2.4947818030903353e-02  -2.3713140174408068e-02  -2.4038410617804411e-02  -2.3077758548844082e-02  -2.3281983017352605e-02  -2.2571483582466342e-02  -2.2795830872221361e-02  -2.2230028555170561e-02  -2.2595670856820876e-02  -2.2118195539836370e-02  -2.2683493182436485e-02  -2.2967373830380156e-02  -2.3146399215046042e-02  -2.2437559456684655e-02  -2.2655154348869101e-02  -2.2087765432374378e-02  -2.2451448769184448e-02  -2.1965607445802143e-02  -2.2541945531180059e-02  -2.4640301845271537e-02  -2.4639769349297555e-02  -2.6584239729717012e-02  -2.6481549253142594e-02  -2.4578252012443309e-02  -2.4407435427959877e-02  -2.2308440042700505e-02  -2.3069002227842354e-02  -2.2625343761638887e-02  -2.3682730559661525e-02  -2.3022509582659608e-02  -2.2158931532995352e-02  -2.2924641547123946e-02  -2.2472549416911885e-02  -2.3545247158952756e-02  -2.2885979845525858e-02  -2.6664150453298931e-02  -2.5262783523706173e-02  -2.4909112313405132e-02  -2.3022545917851866e-02  -2.3711912860995204e-02  -2.3140656286961440e-02  -2.3815965563960338e-02  -2.2215413541229315e-02  -2.2596776962522339e-02  -2.2366334818453282e-02  -2.2779789220871878e-02  -2.2565464145448046e-02  -2.0645251683800096e-02  -2.2679055585665606e-02  -2.4053074418837309e-02  -2.3013311248156140e-02  -2.2202012036648070e-02  -2.0492942781499410e-02  -2.4089132425616389e-02  -2.2676270436433429e-02  -2.3847005939490715e-02  -2.1958342838871815e-02  -2.3984503267215882e-02  -2.1914988543366560e-02  -2.1834770590670165e-02  -2.1564346753479988e-02  -2.3577324248500248e-02  -2.1496553304520331e-02  -2.3583614400257510e-02  -1.8596332264628451e-02  -2.6130797408255694e-02  -9.6112638927368134e-03  -2.4905691685769570e-02  -2.6235495617082279e-02  -2.1457769671247739e-02  -2.1289560783614991e-02  -2.2776481858583809e-02  -2.1564181636475239e-02  -2.5531712778912162e-02  -2.5388537356843960e-02  -2.5048525229897634e-02  -2.5916798880061962e-02  -2.5117450132194446e-02  -2.5410310552236814e-02  -2.4642021701026924e-02  -2.4078083996752916e-02  -2.3572698156434844e-02  -2.4917839092144858e-02  -2.3644345370210495e-02  -2.2976925699313956e-02  -2.2652514102677188e-02  -2.2405170478292376e-02  -2.2055640067407276e-02  -2.2098787192225879e-02  -2.1734536766697878e-02  -2.3052727358859847e-02  -2.2900515070271712e-02  -2.1569493195142744e-02  -2.3578662730160755e-02  -2.3075368603328414e-02  -2.2340725526106837e-02  -1.8982690596138416e-02  -2.2060800561815846e-02  -2.1695892743985389e-02  -2.2057642458840020e-02  -2.1287610161635738e-02  -9.1430027423551261e-03  -9.9083000521807130e-03  -9.4348359204645665e-03  -2.5757631874515952e-02  -2.4067032530028568e-02  -2.6235629570569959e-02  -2.4153256570843894e-02  -2.5354907650952715e-02  -1.9159081148078551e-02  -1.9878903930964281e-02  -2.0047772431639434e-02  -2.3000518364879492e-02  -2.4204454745313991e-02  -2.5041963990984465e-02  -2.4087898798970012e-02  -2.2944320081667812e-02  -2.3115688806226244e-02  -2.3086383989631875e-02  -2.2433569793760658e-02  -2.2433299330655097e-02  -2.2188315199976934e-02  -2.1582253690687572e-02  -2.2052696600461722e-02  -2.1628999480458780e-02  -2.1917219987470725e-02  -2.2008530736287044e-02  -2.2429958002615939e-02  -2.2000363736799589e-02  -2.3041345760646797e-02  -2.2729914217792222e-02  -2.3690994648840908e-02  -2.3391155390923173e-02  -2.4647280981466995e-02  -2.3488739359924970e-02  -2.5289873492437772e-02  -2.3024442475439468e-02  -2.4820355151422110e-02  -2.2425403442362588e-02  -2.3470196469364844e-02  -2.1794340937932394e-02  -2.5500244158967920e-02  -2.5015624306709155e-02  -2.1418421247034899e-02  -2.0054881751195672e-02  -2.2503713309974849e-02  -2.1885980681422102e-02  -2.5581850741954442e-02  -2.1486970552990526e-02  -2.4658618174091700e-02  -2.0989054415958448e-02  -2.0409304179178130e-02  -2.2436071931724026e-02  -2.5460580707651798e-02  -2.0556373911016685e-02  -2.3845535319153250e-02  -2.0984578308726104e-02  -2.0703743702422627e-02  -2.1015533521204961e-02  -2.0513530820920126e-02  -2.3132201810477572e-02  -2.1733521778595402e-02  -2.1953288144463984e-02  -2.1259466772778325e-02  -2.2928181233260490e-02  -2.3735570758782999e-02  -2.0508603364361732e-02  -2.1267065051143973e-02  -1.7108801168573141e-02  -2.0595484163580091e-02  -2.1814284851574366e-02  -2.4477529070880098e-02  -2.2272907624059715e-02  -2.1315075128263972e-02  -1.7123