<?xml version="1.0"?>
<VTKFile type="UnstructuredGrid"  version="0.1"  >
<UnstructuredGrid>
<Piece  NumberOfPoints="1297" NumberOfCells="2496">
<Points>
<DataArray  type="Float64"  NumberOfComponents="3"  format="ascii">0 0 0  0 1 0  1 1 0  1 0 0  1.1 -0.1 0  -0.1 -0.1 0  1.1 1.1 0  -0.1 1.1 0  0.2845927514067082 0.6824559366514066 0  0.2848294067909327 0.3181696094893447 0  0.7155584190868718 0.3176142846052626 0  0.7154663495884055 0.6825746859308436 0  0.5001084566679865 0.5001446706015863 0  0 0.9499999999997918 0  0 0.8999999999995836 0  0 0.8499999999996529 0  0 0.7999999999999998 0  0 0.7500000000003466 0  0 0.7000000000006934 0  0 0.6500000000010401 0  0 0.6000000000013869 0  0 0.5500000000017335 0  0 0.5000000000020587 0  0 0.4500000000018723 0  0 0.4000000000016644 0  0 0.3500000000014564 0  0 0.3000000000012483 0  0 0.2500000000010403 0  0 0.2000000000008322 0  0 0.1500000000006241 0  0 0.100000000000416 0  0 0.05000000000020799 0  0.04999999999989965 0 0  0.09999999999981467 0 0  0.1499999999997036 0 0  0.1999999999995579 0 0  0.2499999999994121 0 0  0.2999999999992664 0 0  0.3499999999991206 0 0  0.3999999999989749 0 0  0.4499999999988292 0 0  0.4999999999986943 0 0  0.5499999999988151 0 0  0.5999999999989468 0 0  0.6499999999990784 0 0  0.69999999999921 0 0  0.7499999999993417 0 0  0.7999999999994734 0 0  0.8499999999996051 0 0  0.8999999999997368 0 0  0.9499999999998684 0 0  1 0.04999999999989965 0  1 0.09999999999981467 0  1 0.1499999999997036 0  1 0.1999999999995579 0  1 0.2499999999994121 0  1 0.2999999999992664 0  1 0.3499999999991206 0  1 0.3999999999989749 0  1 0.4499999999988292 0  1 0.4999999999986943 0  1 0.5499999999988151 0  1 0.5999999999989468 0  1 0.6499999999990784 0  1 0.69999999999921 0  1 0.7499999999993417 0  1 0.7999999999994734 0  1 0.8499999999996051 0  1 0.8999999999997368 0  1 0.9499999999998684 0  0.9499999999997918 1 0  0.8999999999995836 1 0  0.8499999999996529 1 0  0.7999999999999998 1 0  0.7500000000003466 1 0  0.7000000000006934 1 0  0.6500000000010401 1 0  0.6000000000013869 1 0  0.5500000000017335 1 0  0.5000000000020587 1 0  0.4500000000018723 1 0  0.4000000000016644 1 0  0.3500000000014564 1 0  0.3000000000012483 1 0  0.2500000000010403 1 0  0.2000000000008322 1 0  0.1500000000006241 1 0  0.100000000000416 1 0  0.05000000000020799 1 0  -0.1 1.05000000000004 0  -0.1 1.000000000000079 0  -0.1 0.9500000000001624 0  -0.1 0.9000000000003032 0  -0.1 0.850000000000444 0  -0.1 0.8000000000005848 0  -0.1 0.7500000000007256 0  -0.1 0.7000000000008665 0  -0.1 0.6500000000010508 0  -0.1 0.6000000000012352 0  -0.1 0.5500000000014196 0  -0.1 0.500000000001539 0  -0.1 0.4500000000014195 0  -0.1 0.4000000000013 0  -0.1 0.3500000000011588 0  -0.1 0.3000000000010178 0  -0.1 0.2500000000008986 0  -0.1 0.2000000000007579 0  -0.1 0.1500000000006174 0  -0.1 0.1000000000005272 0  -0.1 0.05000000000040083 0  -0.1 2.671196597248127e-13 0  -0.1 -0.0499999999998666 0  -0.0500000000000906 -0.1 0  -1.730560139634463e-13 -0.1 0  0.04999999999975802 -0.1 0  0.09999999999961506 -0.1 0  0.1499999999994613 -0.1 0  0.199999999999302 -0.1 0  0.2499999999991446 -0.1 0  0.2999999999990088 -0.1 0  0.3499999999988296 -0.1 0  0.3999999999986936 -0.1 0  0.4499999999985143 -0.1 0  0.4999999999984002 -0.1 0  0.5499999999985247 -0.1 0  0.5999999999986493 -0.1 0  0.6499999999987955 -0.1 0  0.6999999999989417 -0.1 0  0.7499999999990659 -0.1 0  0.7999999999992116 -0.1 0  0.8499999999993573 -0.1 0  0.8999999999994526 -0.1 0  0.949999999999584 -0.1 0  0.9999999999997226 -0.1 0  1.049999999999861 -0.1 0  1.1 -0.0500000000000906 0  1.1 -1.730560139634463e-13 0  1.1 0.04999999999975802 0  1.1 0.09999999999961506 0  1.1 0.1499999999994613 0  1.1 0.199999999999302 0  1.1 0.2499999999991446 0  1.1 0.2999999999990088 0  1.1 0.3499999999988296 0  1.1 0.3999999999986936 0  1.1 0.4499999999985143 0  1.1 0.4999999999984002 0  1.1 0.5499999999985247 0  1.1 0.5999999999986493 0  1.1 0.6499999999987955 0  1.1 0.6999999999989417 0  1.1 0.7499999999990659 0  1.1 0.7999999999992116 0  1.1 0.8499999999993573 0  1.1 0.8999999999994526 0  1.1 0.949999999999584 0  1.1 0.9999999999997226 0  1.1 1.049999999999861 0  1.05000000000004 1.1 0  1.000000000000079 1.1 0  0.9500000000001624 1.1 0  0.9000000000003032 1.1 0  0.850000000000444 1.1 0  0.8000000000005848 1.1 0  0.7500000000007256 1.1 0  0.7000000000008665 1.1 0  0.6500000000010508 1.1 0  0.6000000000012352 1.1 0  0.5500000000014196 1.1 0  0.500000000001539 1.1 0  0.4500000000014195 1.1 0  0.4000000000013 1.1 0  0.3500000000011588 1.1 0  0.3000000000010178 1.1 0  0.2500000000008986 1.1 0  0.2000000000007579 1.1 0  0.1500000000006174 1.1 0  0.1000000000005272 1.1 0  0.05000000000040083 1.1 0  2.671196597248127e-13 1.1 0  -0.0499999999998666 1.1 0  0.2785980211766318 0.6665159132138132 0  0.2750395687064627 0.6456560781227695 0  0.2726334320641463 0.6224994010240377 0  0.2700946057963667 0.5977634435376878 0  0.2671067191428403 0.5726296381607165 0  0.2640856619353594 0.5480456457125092 0  0.2620012458427917 0.5240471064667123 0  0.2613996526589073 0.5004018805992496 0  0.2623263727382222 0.4766560661325489 0  0.2646376865287263 0.4525297263194412 0  0.2676497135034929 0.4277946338687722 0  0.2705161066409717 0.402638274917904 0  0.2729313699758404 0.3780121383751862 0  0.2752993974511708 0.3549130673727057 0  0.2788613932224355 0.3340849099183875 0  0.2999184943604699 0.310433394872119 0  0.3196744515799431 0.3042358392543918 0  0.34198778026052 0.2983067090922029 0  0.3654915728081569 0.2911793697292336 0  0.3887084161035839 0.2826608457030257 0  0.41090806597631 0.2739611285329007 0  0.4327299739841799 0.2663465964400903 0  0.4546039851043344 0.260415568546068 0  0.4770216826156164 0.2562428244682849 0  0.4999131371797131 0.2545880553242796 0  0.522838619012769 0.2557125759477998 0  0.5454113114055725 0.2595786921964459 0  0.5670945289061957 0.2658972086728645 0  0.5890075266843001 0.2732776948335495 0  0.6111695279459064 0.2818615261907748 0  0.6344210198799393 0.2902118511306334 0  0.6580915946788821 0.2973986585198604 0  0.6804531953594284 0.3035112706436386 0  0.7002908922583593 0.3098600952501254 0  0.7215195158032631 0.3338249809167274 0  0.7251447648038329 0.3546400134237018 0  0.7275829887801721 0.3779332717790111 0  0.7300799566583791 0.4027402549261765 0  0.7331299714934936 0.4279226904015638 0  0.7362168111343844 0.4526001754257901 0  0.7384747801382574 0.476631616101479 0  0.7393390159785161 0.500376526628569 0  0.7385524658880681 0.5241678513891344 0  0.7360849767939903 0.5481621713470013 0  0.732789284399746 0.5727409725234069 0  0.7296738005632077 0.5978280982203659 0  0.7273969575982293 0.6224632247277283 0  0.7250533626701591 0.6456403501797819 0  0.7214381306093591 0.6663959086182675 0  0.7002355806351654 0.6903208889347514 0  0.6804102682785012 0.6966192393343049 0  0.6579870291945548 0.7027162249329317 0  0.6343233371041351 0.7098794629347916 0  0.611109830064869 0.7182664489583194 0  0.5890272242314957 0.7269818661455262 0  0.5671834301190996 0.7345971020008204 0  0.54548050030141 0.7411122493442525 0  0.5229362566234127 0.745272648118643 0  0.4999733012936975 0.7466818283931992 0  0.4770483307392591 0.745263183112106 0  0.4545874848133704 0.7412022665917724 0  0.4326001270820692 0.7350840685530071 0  0.4109830621854831 0.727038856282618 0  0.3889045984364151 0.7182114801161008 0  0.365477841928486 0.7096795014360147 0  0.3418748883486561 0.7025002279769385 0  0.3195685381332503 0.6964844994439385 0  0.2997469459457441 0.6902169223122419 0  0.3762258721837099 0.3110347427768244 0  0.2858346127175144 0.4392260198307075 0  0.3762684434774804 0.6896794907940714 0  0.285455304291999 0.5613038225059498 0  0.7134531986258241 0.5855551980132979 0  0.6009826916229584 0.6970860251843308 0  0.6227450027729264 0.3097146404326727 0  0.7161536691210285 0.4385702379182324 0  0.7189104253905108 0.5118543770227001 0  0.5559346169075285 0.2910259455983025 0  0.4441448152046611 0.2939573795683385 0  0.4429054395600897 0.7071831943222633 0  0.5342693001238393 0.7116743576008122 0  0.2823629321130066 0.4882019535457916 0  0.2892828623807135 0.3895494459094163 0  0.4885339473502798 0.2913812315412844 0  0.2940498485996491 0.6091313964227633 0  0.7061036867913735 0.3873516120963755 0  0.4886007230990994 0.7137254363633577 0  0.6466876209952072 0.6842208302990095 0  0.3305593905003968 0.3241709481013724 0  0.669877339966498 0.3249802195771185 0  0.331112802902704 0.6786912431380209 0  0.7063784754021529 0.6362790749856667 0  0.2951003086678375 0.3434359557988152 0  0.2971131523820038 0.6558516092343354 0  0.6902275928160539 0.6742418275411877 0  0.7059059480661537 0.3425616469704418 0  0.3533901972219581 0.6838227626401461 0  0.3642104423691895 0.6640836047293304 0  0.3864195960228797 0.6680567690179618 0  0.3735129235412477 0.6423531998616538 0  0.3965532393325727 0.6442413508098868 0  0.3826962039901375 0.6163945303614529 0  0.4109540457466327 0.6163236196741481 0  0.3939295443304554 0.5855776600262221 0  0.3555535870142371 0.6144122311902787 0  0.4288709171034752 0.5853416654655106 0  0.4070795118803311 0.5497511036158529 0  0.3673830942971983 0.555260918236856 0  0.3833489307975187 0.5149289287382351 0  0.346451430186716 0.5170563571410771 0  0.3592847389548857 0.4812972940433296 0  0.3984327693583359 0.4757677695714993 0  0.3781953504515058 0.4421830520522065 0  0.4148273316571668 0.4367751660847762 0  0.3952789429788355 0.4056999151507279 0  0.4293609428298961 0.3955084169835687 0  0.3611224087958943 0.406620204438757 0  0.4049186185717679 0.3726756082202144 0  0.4387816975776128 0.6168630988057128 0  0.4648739112159274 0.591905836448325 0  0.4836695740604363 0.6156694960701805 0  0.502266061222754 0.5929893672485282 0  0.5200062872712806 0.6160547116121879 0  0.53876539730258 0.5938584967247833 0  0.5562032118856888 0.6182453056801133 0  0.575257465836954 0.5958477036771037 0  0.5929132537959126 0.6240184735427245 0  0.611254045230135 0.5911213158894441 0  0.596312248554670
[...]
<PointData  Scalars="state"> 
<DataArray  type="Float64"  Name="state"  format="ascii">0.0000000000000000e+00  0.0000000000000000e+00  0.0000000000000000e+00  0.0000000000000000e+00  0.0000000000000000e+00  0.0000000000000000e+00  0.0000000000000000e+00  0.0000000000000000e+00  -2.1287872001451127e-02  -2.1380503108402123e-02  -2.1438906169516089e-02  -2.1384136810114637e-02  1.3586246875220522e+00  0.0000000000000000e+00  0.0000000000000000e+00  0.0000000000000000e+00  0.0000000000000000e+00  0.0000000000000000e+00  0.0000000000000000e+00  0.0000000000000000e+00  0.0000000000000000e+00  0.0000000000000000e+00  0.0000000000000000e+00  0.0000000000000000e+00  0.0000000000000000e+00  0.0000000000000000e+00  0.0000000000000000e+00  0.0000000000000000e+00  0.0000000000000000e+00  0.0000000000000000e+00  0.0000000000000000e+00  0.0000000000000000e+00  0.0000000000000000e+00  0.0000000000000000e+00  0.0000000000000000e+00  0.0000000000000000e+00  0.0000000000000000e+00  0.0000000000000000e+00  0.0000000000000000e+00  0.0000000000000000e+00  0.0000000000000000e+00  0.0000000000000000e+00  0.0000000000000000e+00  0.0000000000000000e+00  0.0000000000000000e+00  0.0000000000000000e+00  0.0000000000000000e+00  0.0000000000000000e+00  0.0000000000000000e+00  0.0000000000000000e+00  0.0000000000000000e+00  0.0000000000000000e+00  0.0000000000000000e+00  0.0000000000000000e+00  0.0000000000000000e+00  0.0000000000000000e+00  0.0000000000000000e+00  0.0000000000000000e+00  0.0000000000000000e+00  0.0000000000000000e+00  0.0000000000000000e+00  0.0000000000000000e+00  0.0000000000000000e+00  0.0000000000000000e+00  0.0000000000000000e+00  0.0000000000000000e+00  0.0000000000000000e+00  0.0000000000000000e+00  0.0000000000000000e+00  0.0000000000000000e+00  0.0000000000000000e+00  0.0000000000000000e+00  0.0000000000000000e+00  0.0000000000000000e+00  0.0000000000000000e+00  0.0000000000000000e+00  0.0000000000000000e+00  0.0000000000000000e+00  0.0000000000000000e+00  0.0000000000000000e+00  0.0000000000000000e+00  0.0000000000000000e+00  0.0000000000000000e+00  0.0000000000000000e+00  0.0000000000000000e+00  0.0000000000000000e+00  0.0000000000000000e+00  0.0000000000000000e+00  0.0000000000000000e+00  0.0000000000000000e+00  0.0000000000000000e+00  0.0000000000000000e+00  0.0000000000000000e+00  0.0000000000000000e+00  0.0000000000000000e+00  0.0000000000000000e+00  0.0000000000000000e+00  0.0000000000000000e+00  0.0000000000000000e+00  0.0000000000000000e+00  0.0000000000000000e+00  0.0000000000000000e+00  0.0000000000000000e+00  0.0000000000000000e+00  0.0000000000000000e+00  0.0000000000000000e+00  0.0000000000000000e+00  0.0000000000000000e+00  0.0000000000000000e+00  0.0000000000000000e+00  0.0000000000000000e+00  0.0000000000000000e+00  0.0000000000000000e+00  0.0000000000000000e+00  0.0000000000000000e+00  0.0000000000000000e+00  0.0000000000000000e+00  0.0000000000000000e+00  0.0000000000000000e+00  0.0000000000000000e+00  0.0000000000000000e+00  0.0000000000000000e+00  0.0000000000000000e+00  0.0000000000000000e+00  0.0000000000000000e+00  0.0000000000000000e+00  0.0000000000000000e+00  0.0000000000000000e+00  0.0000000000000000e+00  0.0000000000000000e+00  0.0000000000000000e+00  0.0000000000000000e+00  0.0000000000000000e+00  0.0000000000000000e+00  0.0000000000000000e+00  0.0000000000000000e+00  0.0000000000000000e+00  0.0000000000000000e+00  0.0000000000000000e+00  0.0000000000000000e+00  0.0000000000000000e+00  0.0000000000000000e+00  0.0000000000000000e+00  0.0000000000000000e+00  0.0000000000000000e+00  0.0000000000000000e+00  0.0000000000000000e+00  0.0000000000000000e+00  0.0000000000000000e+00  0.0000000000000000e+00  0.0000000000000000e+00  0.0000000000000000e+00  0.0000000000000000e+00  0.0000000000000000e+00  0.0000000000000000e+00  0.0000000000000000e+00  0.0000000000000000e+00  0.0000000000000000e+00  0.0000000000000000e+00  0.0000000000000000e+00  0.0000000000000000e+00  0.0000000000000000e+00  0.0000000000000000e+00  0.0000000000000000e+00  0.0000000000000000e+00  0.0000000000000000e+00  0.0000000000000000e+00  0.0000000000000000e+00  0.0000000000000000e+00  0.0000000000000000e+00  0.0000000000000000e+00  0.0000000000000000e+00  0.0000000000000000e+00  0.0000000000000000e+00  0.0000000000000000e+00  0.0000000000000000e+00  0.0000000000000000e+00  0.0000000000000000e+00  0.0000000000000000e+00  0.0000000000000000e+00  0.0000000000000000e+00  -1.8488836998723807e-02  -1.5781881209796494e-02  -1.1334734984447706e-02  -7.5002770977718146e-03  -5.1086150595915569e-03  -4.0894384318023022e-03  -3.6539440564285599e-03  -4.2077048960176035e-03  -2.8625417182959341e-03  -3.3826765054200659e-03  -5.4290762543995541e-03  -8.0586861953803636e-03  -1.1119901623777996e-02  -1.5257380993696843e-02  -1.8340128776842060e-02  -1.8799798970208025e-02  -1.5221738310669291e-02  -1.0695573713251218e-02  -6.4953102535458733e-03  -5.0171728248346766e-03  -3.7077121392555938e-03  -3.9329581393634499e-03  -4.9925651739834249e-03  -4.4091738709465741e-03  -5.0724464423368820e-03  -5.0924444790913584e-03  -4.4676307401978269e-03  -4.9799393625437815e-03  -3.3712819959932417e-03  -5.6535108155613125e-03  -7.6218338619959214e-03  -1.1041995826987536e-02  -1.5059093450902823e-02  -1.8762881822850144e-02  -1.8811114907734891e-02  -1.5570024721154305e-02  -1.1259744260570510e-02  -7.2566527368357475e-03  -5.1133952053823480e-03  -4.1338759607728011e-03  -3.8782709687015847e-03  -3.3192404790698053e-03  -2.8634920047285613e-03  -3.4719272344012082e-03  -4.3843034289458103e-03  -6.5160041855033442e-03  -1.1217923044550757e-02  -1.5383493112590624e-02  -1.8721948850404641e-02  -1.8609235908477868e-02  -1.5214504736394510e-02  -1.1382673774207186e-02  -7.6953397214847485e-03  -5.5730019685993398e-03  -3.6472870749297871e-03  -5.1689358805317703e-03  -4.0625727485029788e-03  -4.5175984519834804e-03  -4.8400752773601254e-03  -4.8018657120980860e-03  -4.7977812622818951e-03  -3.5637063362277946e-03  -4.1766991426428141e-03  -5.2924495287749963e-03  -6.6497907857875687e-03  -1.0720236549192554e-02  -1.5220948279959861e-02  -1.8673099875323170e-02  6.1502764183515982e-02  5.9658041625101368e-02  6.1993747305281954e-02  5.8966501029033357e-02  5.5193203978926651e-02  6.5313954079282047e-02  6.1561288184066566e-02  5.7469948831402322e-02  5.7251037951310257e-02  6.5656461922673590e-02  7.0451011065327682e-02  6.9527261403634397e-02  6.7050286700199371e-02  5.9183519866294804e-02  4.5161184687251124e-02  7.6864667858179470e-02  5.1611071319966832e-02  4.9570219751008678e-02  6.9350763930617343e-02  4.9427044585406338e-02  3.7710104246957039e-02  3.9127001245412060e-02  3.6306721765201715e-02  3.5672851164257460e-02  2.2355332913747583e-02  2.5215613581933267e-02  2.3224198945083863e-02  2.2777725172111095e-02  4.9473854284005622e-02  8.9542451803814843e-02  1.1746299347425446e-01  2.1304570182950805e-01  2.8274453011729217e-01  5.8156011417657505e-01  7.3418781147966350e-01  7.8840584897060062e-01  3.0823348185506827e-01  9.5811394515508186e-01  9.9293014278772851e-01  7.4203565732563992e-01  9.2984668625058597e-01  4.8875714179434210e-01  7.2079451144699969e-01  9.9013816193554915e-01  8.1965927093254909e-01  9.8222279339543817e-01  7.7134362410672241e-01  8.7325178264187020e-01  5.3200607493923602e-01  5.6293550661864189e-01  8.4661881242847015e-01  1.0349342548028988e+00  9.1097586381174012e-01  1.0713045224218538e+00  8.8686247193099910e-01  1.0195214283691623e+00  8.4182616916772535e-01  8.8934359722284884e-01  6.3207200837121613e-01  7.7405384783585585e-01  9.4705249402173675e-01  7.5279569673399860e-01  9.3327243695689377e-01  4.5129658616840207e-01  2.5575211534892939e-01  2.9834728687340956e-01  4.1171614696619335e-01  2.4177696408737925e-01  1.4687695067481257e-01  6.3305018537811808e-01  9.2333038022462699e-01  1.3395770500598556e-01  2.0692279142988931e-01  5.1839880792310300e-01  3.7872859260674563e-01  6.4179938366061207e-01  9.6452607507867760e-01  5.8860722276263910e-01  9.1217027121137240e-01  1.1235655689357869e+00  9.5936459784281480e-01  7.8386557309863103e-01  7.8264699335089860e-01  1.0153527959578703e+00  7.7250846177519417e-01  5.8232471751412496e-01  4.6280402958036404e-01  6.0040758158396401e-01  2.2295336189970122e-01  1.6107735600824791e-01  9.7607908462227347e-02  1.0408217397718228e-01  1.1424608226055324e+00  1.4291831101366695e-01  1.7507984894907158e-01  1.1582484383194831e-01  1.4810647472099076e-01  8.8547519537099509e-02  8.3870853449747554e-02  1.2811535746233219e-01  4.9056128676663835e-01  1.3462110157154658e-01  8.1549088483010540e-02  1.8802318347339425e-01  3.2546979997902092e-01  1.8316199094238625e-01  1.8043784333016191e-01  2.3572997353757388e-01  1.3335012639471611e-01  1.0671757599596271e-01  8.7558195694798321e-02  1.3537236304892991e-01  9.6754535855181331e-02  1.4930401388078277e-01  7.2274887274808172e-02  3.1237507185443109e-01  1.2307291881020452e+00  8.6082613644846179e-02  1.2106650918756214e+00  5.2745963028363219e-01  1.5488395164063959e-01  4.1599219701089690e-01  1.6782642707710932e-01  9.2968309620026571e-02  8.3071340863712970e-02  1.4581924773480981e-01  4.8487257186711713e-01  2.0655268577091326e-01  1.0846334817603615e-01  1.0161247689806914e+00  5.8107395291481512e-02  4.7617041267081876e-02  4.3607207003406567e-01  1.6838396986805518e-01  1.9701965405866440e-01  3.1755043432019187e-01  1.9723906593803625e-01  1.1027142855627535e-01  1.6756732500216853e-01  1.0127859686726641e-01  8.2106364353229752e-02  6.1398915692782642e-02  3.4443889108234281e-02  5.0361971412391911e-02  9.2099701808165138e-02  6.7228298168108880e-02  6.6706360354978136e-02  6.4050055096415301e-02  3.1871024927480368e-02  3.4438844124167374e-02  6.9816700063946233e-02  1.4041150439112618e-01  3.8585022411242387e-01  5.0463079835894986e-02  6.7053199072939343e-02  7.5264987469083972e-02  5.0306787101453872e-02  7.8758788733055099e-02  7.0907956138053285e-02  6.3977611479118596e-02  3.6372117904932832e-02  5.5171023954211820e-02  6.5381934610942410e-02  5.6579932887652895e-02  8.3599725901554650e-02  6.8001610203755794e-02  1.2250325172791329e-01  6.8003241973383144e-02  5.9875499116254442e-02  3.6438307928957872e-02  3.2902371623896726e-02  8.2041113724223305e-02  2.1171820361769395e-01  6.0123099768498132e-02  6.6363358520579091e-02  9.0791654339510239e-02  2.2778185255359063e-02  2.3194627403510214e-02  2.2320079359904009e-02  2.3531295937110539e-02  5.9632850949606554e-02  1.1146738152986158e+00  1.2771813155766305e+00  9.9946878788210403e-02  5.7415269012697223e-02  5.3334543852433462e-02  5.2533136251709203e-02  3.4587591527154564e-02  6.4986538130373778e-02  8.5827084404682313e-02  1.6975211047578370e-01  2.1985162136560288e-01  6.7339740287376326e-02  1.7864564076172426e-01  1.1534372589229942e+00  1.1901851797408254e+00  8.5130578482987695e-01  1.3055509393809198e-01  8.5641747277067040e-02  1.4836382522293234e-01  1.2897316236743936e-01  1.5285159261675224e-01  5.7554253856230551e-02  5.5883070200807024e-02  1.1572702477966952e+00  4.8205090981690416e-02  1.3706931659537014e-01  1.2114395009271456e-01  5.1814942565221711e-01  7.2450592717121301e-02  4.5756519874388102e-01  8.7389797013836013e-01  5.5279812736385173e-02  1.3008668049489209e+00  6.3569753735262036e-01  2.6958437051486921e-02  3.8568218577625812e-01  1.3539901063658985e-01  1.2518496348368019e-01  1.1449135348431003e+00  5.7710728493044268e-02  1.0706278272185753e-01  1.3545680656091300e-01  1.3139677602859687e+00  8.9800894681214882e-02  1.8856416066424506e-01  1.2801353987327082e+00  2.9888622198100251e-01  1.5052179451898395e-01  1.3082986978613540e+00  5.4441710158611178e-01  8.0125622282634118e-02  9.5483076085177393e-02  2.3382895775668322e-01  7.0727933011365285e-01  1.3101426080736456e-01  4.9779414245826700e-02  4.1826986912088499e-01  2.3020639329647596e-02  2.3318022180214892e-02  2.2435352012976088e-02  2.3426911798511942e-02  9.2926306416344834e-02  5.3979323273157284e-02  7.6221765693803858e-02  6.0657559839519731e-02  1.2819617132144592e-01  7.0348914005200402e-01  6.2663906054063412e-02  7.8724377694885744e-02  2.7549037256720665e-01  8.3410905474137853e-01  6.5639887355203652e-01  8.6291314115514617e-01  7.4225188199620179e-02  8.3617893267178622e-01  1.4554404006070731e-01  6.8302948476077374e-01  1.3091266155139401e+00  1.4765836042235148e-01  5.4520719837887355e-01  2.6573489888794022e-01  1.3286637077654262e-01  3.4145105031046480e-01  8.1506510232575080e-01  1.1878578830354141e+00  3.5662144413062521e-02  -1.5812400970856150e-02  -1.5664714998884562e-02  -1.7128899735649291e-02  -2.1360308358641732e-02  -1.7121861155862832e-02  -2.1681285527396371e-02  -1.5834664728265658e-02  -1.6767860019149240e-02  -1.5945384619688117e-02  -1.7002264484287065e-02  -2.1486748443305431e-02  -2.1512649128217525e-02  -1.3645372724306900e-02  -1.3052405335465670e-02  -1.4211729627666694e-02  -1.3336645340174468e-02  -1.5545308785862511e-02  -2.1090774824199514e-02  -2.1135462562054206e-02  -1.5394481413591116e-02  -2.4274252007208636e-02  -2.5663433642819269e-02  -1.6085005005597362e-02  -1.6203799966573056e-02  -2.2970406844859109e-02  -2.5617677204258074e-02  -2.6359168738442920e-02  -2.6383788525288221e-02  -2.6773970140761792e-02  -2.6803719066211183e-02  -1.4608374753765039e-02  -1.4267643648831534e-02  -1.4589068589078663e-02  -1.4239147352515092e-02  -1.4364722283875853e-02  -1.4288420217918313e-02  -1.4423091004141780e-02  -2.6757521282357095e-02  -2.6823297562430577e-02  -2.6135338926345598e-02  -2.5453365468815603e-02  -1.5057656605107248e-02  -1.4789354347402178e-02  -1.4671610149385738e-02  -1.4474080160635106e-02  -1.4746969884546350e-02  -1.4473264159106478e-02  -1.5482404809823892e-02  -1.4161985294884476e-02  -2.5470953366083331e-02  -2.4914089329012429e-02  -1.4573505014040700e-02  -1.4203891519355244e-02  -1.4598095595250337e-02  -2.4523397870392767e-02  -2.5722754542434122e-02  -2.6046955597792978e-02  -2.6606137281333622e-02  -2.6751307483271463e-02  -2.6906176584408515e-02  -2.6695142573184977e-02  -2.6807954601016818e-02  -2.6680656184882214e-02  -2.6384313076252736e-02  -2.4412683049767722e-02  -2.5696887273942020e-02  -2.5947818050243206e-02  -2.6511130335183330e-02  -2.6146489639149468e-02  -2.6647678746723150e-02  -2.6810092671194836e-02  -2.6716414711057145e-02  -2.6576679545414046e-02  -2.6309147378473424e-02  -1.8803883158167389e-02  -2.4296562354545831e-02  -2.5695920992848734e-02  -2.5643214939698563e-02  -2.6395050981494309e-02  -2.6409138592031485e-02  -2.6799225948382303e-02  -2.6845352785663759e-02  -2.6797837804026427e-02  -2.6804908650515935e-02  -1.4462653845912759e-02  -1.5184671751644500e-02  -1.7571959006971814e-02  -1.7528480036689800e-02  -2.6507403281147673e-02  -2.6088783999477016e-02  -2.5983016994756313e-02  -2.6130657326629891e-02  -2.6214831409699383e-02  -2.6220631250768837e-02  -1.4239135460543687e-02  -2.5878456017463181e-02  -2.6549177262275129e-02  -2.6068306286994882e-02  -2.5835620484491475e-02  -2.6365851946814855e-02  -2.6456685111916393e-02  -1.8571098233679226e-02  -2.4513996353352198e-02  -2.4680053501067025e-02  -1.2313941320069769e-02  -1.2018308762776280e-02  -1.2248541625952935e-02  -2.4509670727290416e-02  -2.4582921277246240e-02  -2.3884056640628818e-02  -2.3513759160297281e-02  -2.5119830111082889e-02  -2.5715470293824316e-02  -2.5020349699149295e-02  -2.5570543174631161e-02  -2.4348508705207394e-02  -2.5394759421700049e-02  -2.3906542431917414e-02  -2.4561840521566607e-02  -2.3303539206295906e-02  -2.3492667896741527e-02  -2.4509272423149611e-02  -2.5453552923392398e-02  -2.3986410781013573e-02  -2.4521569090683763e-02  -2.3344268322822596e-02  -2.3598057672624739e-02  -2.2699950583309252e-02  -2.2832595437521482e-02  -2.2188093925137264e-02  -2.2343482820626669e-02  -2.1845339250788905e-02  -2.2144031168255942e-02  -2.1736444632935503e-02  -2.2234978323330809e-02  -2.2605371784969411e-02  -2.2715571458100495e-02  -2.2070797324580196e-02  -2.2221432969304410e-02  -2.1719604309844959e-02  -2.2018050165373990e-02  -2.1600356976202589e-02  -2.2111274683739142e-02  -2.4360788364662548e-02  -2.4363315153566881e-02  -2.6181689803770902e-02  -2.6087629050442488e-02  -2.4304560409474370e-02  -2.4139752105753455e-02  -2.1929144615417496e-02  -2.2625794192259876e-02  -2.2254731445682196e-02  -2.3250884883497150e-02  -2.2665172854658886e-02  -2.1794993045566910e-02  -2.2498805721375807e-02  -2.2116647897807585e-02  -2.3129359744056947e-02  -2.2539283809397764e-02  -2.6316680067463242e-02  -2.4970246806295934e-02  -2.4604515799081152e-02  -2.2547408398201681e-02  -2.3246195752377206e-02  -2.2649513100553395e-02  -2.3334054256753223e-02  -2.1732134453100283e-02  -2.2336047807798652e-02  -2.1869556186627344e-02  -2.2507935082371113e-02  -2.2085229400388793e-02  -2.0318130459062510e-02  -2.2181204061055969e-02  -2.3728199900987564e-02  -2.2739113092626870e-02  -2.1983657586962364e-02  -2.0180379989294173e-02  -2.3773090516302602e-02  -2.2414808954046565e-02  -2.3383470078695276e-02  -2.1747713976442640e-02  -2.3503543564007332e-02  -2.1592694881349305e-02  -2.1545690360370771e-02  -2.1221276845686639e-02  -2.3140394437990618e-02  -2.1290541699513117e-02  -2.3324884189937046e-02  -1.8447407612691969e-02  -2.5702537734168057e-02  -9.5678297585920589e-03  -2.4456288842139975e-02  -2.5822646370037824e-02  -2.1155708757411872e-02  -2.0923331479883116e-02  -2.2323603280298445e-02  -2.1248355016614515e-02  -2.5116505426053561e-02  -2.4987666604090426e-02  -2.4607917749497991e-02  -2.5492645994034033e-02  -2.4669398858512184e-02  -2.4977881640945353e-02  -2.4184545850965224e-02  -2.3691373516267926e-02  -2.3156474959376654e-02  -2.4544289889017658e-02  -2.3148560446615136e-02  -2.2534521246676386e-02  -2.2122270870136289e-02  -2.1945500908098627e-02  -2.1500652479614739e-02  -2.1622849718828076e-02  -2.1161996284034021e-02  -2.2808497926215678e-02  -2.2671342855434238e-02  -2.1367315097877222e-02  -2.3326772650486948e-02  -2.2560063133638824e-02  -2.1796468071577195e-02  -1.8830927035131728e-02  -2.1558237750626413e-02  -2.1482509954387746e-02  -2.1834028028251493e-02  -2.0886548078459698e-02  -9.1027491498789238e-03  -9.8630383456623349e-03  -9.3922087943798770e-03  -2.5348560910085405e-02  -2.3742727511938386e-02  -2.5864649934533489e-02  -2.3841238661155569e-02  -2.4966998007312259e-02  -1.8982347199713839e-02  -1.9713712727183363e-02  -1.9855872115095711e-02  -2.2683574243841851e-02  -2.3825152390469295e-02  -2.4609126931722486e-02  -2.3634903029556689e-02  -2.2569590608117761e-02  -2.2670672970538316e-02  -2.2581478935573954e-02  -2.1906115767522844e-02  -2.2005887345523587e-02  -2.1686597347078833e-02  -2.1178526304767950e-02  -2.1585396231081001e-02  -2.1060030531433679e-02  -2.1374256339424084e-02  -2.1576608056403795e-02  -2.1923125893782459e-02  -2.1600323776219395e-02  -2.2594039979373877e-02  -2.2205566204574961e-02  -2.3211101449772519e-02  -2.2989592104760950e-02  -2.4202729794565229e-02  -2.3129008473167015e-02  -2.4895257652434093e-02  -2.2707304758966412e-02  -2.4487518834931395e-02  -2.1914264027576170e-02  -2.2985436954764960e-02  -2.1275314608051713e-02  -2.5061652011563934e-02  -2.4561643899668629e-02  -2.1056670971065682e-02  -1.9805557355478034e-02  -2.1975997079901076e-02  -2.1349516322631126e-02  -2.5146122323870378e-02  -2.0896633090778837e-02  -2.4213645149700022e-02  -2.0606880527658453e-02  -1.9852221788150552e-02  -2.1887160871100642e-02  -2.5025918479438924e-02  -2.0300147472244217e-02  -2.3562531384471393e-02  -2.0372062273749662e-02  -2.0398329966165855e-02  -2.0722014422358204e-02  -1.9938072695259920e-02  -2.2610808546774639e-02  -2.1494216191627970e-02  -2.1384830275591526e-02  -2.0659909629557008e-02  -2.2399952588651528e-02  -2.3245353578846221e-02  -2.0215580506052752e-02  -2.0975131371304554e-02  -1.6885648707769079e-02  -1.9966837450079520e-02  -2.1252116726207818e-02  -2.4177378249710949e-02  -2.1993292977846610e-02  -2.1053521012682631e-02  -1.6932