<?xml version="1.0"?>
<VTKFile type="UnstructuredGrid"  version="0.1"  >
<UnstructuredGrid>
<Piece  NumberOfPoints="1297" NumberOfCells="2496">
<Points>
<DataArray  type="Float64"  NumberOfComponents="3"  format="ascii">0 0 0  0 1 0  1 1 0  1 0 0  1.1 -0.1 0  -0.1 -0.1 0  1.1 1.1 0  -0.1 1.1 0  0.29641720532539 0.6720303698977061 0  0.2969467248859019 0.3286146710884574 0  0.7034490610423119 0.327937880392528 0  0.703403739645267 0.6721255560372071 0  0.5000936806439009 0.500152155246994 0  0 0.9499999999997918 0  0 0.8999999999995836 0  0 0.8499999999996529 0  0 0.7999999999999998 0  0 0.7500000000003466 0  0 0.7000000000006934 0  0 0.6500000000010401 0  0 0.6000000000013869 0  0 0.5500000000017335 0  0 0.5000000000020587 0  0 0.4500000000018723 0  0 0.4000000000016644 0  0 0.3500000000014564 0  0 0.3000000000012483 0  0 0.2500000000010403 0  0 0.2000000000008322 0  0 0.1500000000006241 0  0 0.100000000000416 0  0 0.05000000000020799 0  0.04999999999989965 0 0  0.09999999999981467 0 0  0.1499999999997036 0 0  0.1999999999995579 0 0  0.2499999999994121 0 0  0.2999999999992664 0 0  0.3499999999991206 0 0  0.3999999999989749 0 0  0.4499999999988292 0 0  0.4999999999986943 0 0  0.5499999999988151 0 0  0.5999999999989468 0 0  0.6499999999990784 0 0  0.69999999999921 0 0  0.7499999999993417 0 0  0.7999999999994734 0 0  0.8499999999996051 0 0  0.8999999999997368 0 0  0.9499999999998684 0 0  1 0.04999999999989965 0  1 0.09999999999981467 0  1 0.1499999999997036 0  1 0.1999999999995579 0  1 0.2499999999994121 0  1 0.2999999999992664 0  1 0.3499999999991206 0  1 0.3999999999989749 0  1 0.4499999999988292 0  1 0.4999999999986943 0  1 0.5499999999988151 0  1 0.5999999999989468 0  1 0.6499999999990784 0  1 0.69999999999921 0  1 0.7499999999993417 0  1 0.7999999999994734 0  1 0.8499999999996051 0  1 0.8999999999997368 0  1 0.9499999999998684 0  0.9499999999997918 1 0  0.8999999999995836 1 0  0.8499999999996529 1 0  0.7999999999999998 1 0  0.7500000000003466 1 0  0.7000000000006934 1 0  0.6500000000010401 1 0  0.6000000000013869 1 0  0.5500000000017335 1 0  0.5000000000020587 1 0  0.4500000000018723 1 0  0.4000000000016644 1 0  0.3500000000014564 1 0  0.3000000000012483 1 0  0.2500000000010403 1 0  0.2000000000008322 1 0  0.1500000000006241 1 0  0.100000000000416 1 0  0.05000000000020799 1 0  -0.1 1.05000000000004 0  -0.1 1.000000000000079 0  -0.1 0.9500000000001624 0  -0.1 0.9000000000003032 0  -0.1 0.850000000000444 0  -0.1 0.8000000000005848 0  -0.1 0.7500000000007256 0  -0.1 0.7000000000008665 0  -0.1 0.6500000000010508 0  -0.1 0.6000000000012352 0  -0.1 0.5500000000014196 0  -0.1 0.500000000001539 0  -0.1 0.4500000000014195 0  -0.1 0.4000000000013 0  -0.1 0.3500000000011588 0  -0.1 0.3000000000010178 0  -0.1 0.2500000000008986 0  -0.1 0.2000000000007579 0  -0.1 0.1500000000006174 0  -0.1 0.1000000000005272 0  -0.1 0.05000000000040083 0  -0.1 2.671196597248127e-13 0  -0.1 -0.0499999999998666 0  -0.0500000000000906 -0.1 0  -1.730560139634463e-13 -0.1 0  0.04999999999975802 -0.1 0  0.09999999999961506 -0.1 0  0.1499999999994613 -0.1 0  0.199999999999302 -0.1 0  0.2499999999991446 -0.1 0  0.2999999999990088 -0.1 0  0.3499999999988296 -0.1 0  0.3999999999986936 -0.1 0  0.4499999999985143 -0.1 0  0.4999999999984002 -0.1 0  0.5499999999985247 -0.1 0  0.5999999999986493 -0.1 0  0.6499999999987955 -0.1 0  0.6999999999989417 -0.1 0  0.7499999999990659 -0.1 0  0.7999999999992116 -0.1 0  0.8499999999993573 -0.1 0  0.8999999999994526 -0.1 0  0.949999999999584 -0.1 0  0.9999999999997226 -0.1 0  1.049999999999861 -0.1 0  1.1 -0.0500000000000906 0  1.1 -1.730560139634463e-13 0  1.1 0.04999999999975802 0  1.1 0.09999999999961506 0  1.1 0.1499999999994613 0  1.1 0.199999999999302 0  1.1 0.2499999999991446 0  1.1 0.2999999999990088 0  1.1 0.3499999999988296 0  1.1 0.3999999999986936 0  1.1 0.4499999999985143 0  1.1 0.4999999999984002 0  1.1 0.5499999999985247 0  1.1 0.5999999999986493 0  1.1 0.6499999999987955 0  1.1 0.6999999999989417 0  1.1 0.7499999999990659 0  1.1 0.7999999999992116 0  1.1 0.8499999999993573 0  1.1 0.8999999999994526 0  1.1 0.949999999999584 0  1.1 0.9999999999997226 0  1.1 1.049999999999861 0  1.05000000000004 1.1 0  1.000000000000079 1.1 0  0.9500000000001624 1.1 0  0.9000000000003032 1.1 0  0.850000000000444 1.1 0  0.8000000000005848 1.1 0  0.7500000000007256 1.1 0  0.7000000000008665 1.1 0  0.6500000000010508 1.1 0  0.6000000000012352 1.1 0  0.5500000000014196 1.1 0  0.500000000001539 1.1 0  0.4500000000014195 1.1 0  0.4000000000013 1.1 0  0.3500000000011588 1.1 0  0.3000000000010178 1.1 0  0.2500000000008986 1.1 0  0.2000000000007579 1.1 0  0.1500000000006174 1.1 0  0.1000000000005272 1.1 0  0.05000000000040083 1.1 0  2.671196597248127e-13 1.1 0  -0.0499999999998666 1.1 0  0.2888293188590668 0.6585688137850761 0  0.2823433543809596 0.6398081193799199 0  0.2767962421578918 0.618013096248979 0  0.2713559256878252 0.5941131530982018 0  0.2660113666131964 0.5698091862049186 0  0.2614773342438644 0.5461939049979819 0  0.2586745651032626 0.5231542674256059 0  0.2578399955841152 0.5004499344418726 0  0.2590158396983048 0.4776306525107175 0  0.2621820895562478 0.4544286031497495 0  0.266842251060562 0.4306214847599761 0  0.272133945252836 0.4063060682056033 0  0.2774869963786962 0.3825483207237589 0  0.2829931682078726 0.3607773130784574 0  0.289457391232707 0.3420438160006398 0  0.3092929029292064 0.3193927718348871 0  0.3265215646619961 0.3104532870492623 0  0.3470124098551109 0.30149004775043 0  0.3690961433301856 0.2917071978635556 0  0.3911325356861602 0.2815160627204215 0  0.4124553540787242 0.272109277573822 0  0.4336820799713402 0.2643027971450134 0  0.4551571910278823 0.2584033740646286 0  0.4772851285775945 0.2544001648079189 0  0.49989470023036 0.252795935879059 0  0.5225130729690909 0.253846039460461 0  0.5447265019747083 0.2575687386990255 0  0.5659740095446117 0.2636894947251698 0  0.5872224591414 0.2713549933344243 0  0.6084972590947523 0.28068532863983 0  0.6306151555507542 0.2907587944211636 0  0.6530052762533297 0.3005618499806505 0  0.6736204341961861 0.3096061841631553 0  0.6909264110553396 0.3186598757192287 0  0.7110404550378613 0.3417073025132865 0  0.7175205626287762 0.3604418458919879 0  0.7230975255672801 0.382460134782952 0  0.7285394314992252 0.4063762913885532 0  0.733939749270126 0.4306764758833991 0  0.7385936084599565 0.4544331952197763 0  0.7417262057596805 0.4775729002024873 0  0.7429356975303016 0.5004671624365009 0  0.741979713094206 0.5234184577421778 0  0.7387062285969789 0.5465174710358638 0  0.7338449812986256 0.5701941569377824 0  0.7283284264325349 0.5944029466932224 0  0.7230066879724067 0.6180303849660744 0  0.7174965562734892 0.6398166120376481 0  0.7110083259987902 0.6584261694958954 0  0.6908973821948956 0.6813404920118984 0  0.673555483918796 0.6903151900547507 0  0.6528582441743852 0.6993721322388383 0  0.6304879356145507 0.7091727323139184 0  0.6084371797646462 0.7193764572744443 0  0.5872726548984193 0.7289588923107204 0  0.5660742168970141 0.7369325869956131 0  0.5447708011433587 0.7432775295679082 0  0.5225611781314926 0.7472745068919348 0  0.4999140525798563 0.7486346167086418 0  0.4773049993343731 0.7472931143536597 0  0.4551992764223916 0.7433632132905574 0  0.4336795708535468 0.7372207574232693 0  0.412685124029457 0.7289885356769723 0  0.3914870330037258 0.7193175051808173 0  0.3690685497516408 0.7089750899562303 0  0.3466834836498391 0.6991840261367513 0  0.3261374827592656 0.6902436768156776 0  0.3088483196368368 0.6812776454515901 0  0.3792773206680516 0.3118153189334061 0  0.2852054008405304 0.4413136643579189 0  0.379294168709509 0.6888155832258143 0  0.2846483106806881 0.559245773686574 0  0.7126975016315972 0.5828536914497232 0  0.5986700512666998 0.6974661310044864 0  0.6195938022968215 0.3104086002439518 0  0.7167950546826595 0.4406561397508871 0  0.7212094332862945 0.5115656294589725 0  0.5549045902052648 0.289716302825984 0  0.4450337320079225 0.2927680074031676 0  0.4438957958476642 0.7084335548918024 0  0.5336494277287144 0.7130646557038098 0  0.2801328932294164 0.4886479226118026 0  0.2924582785994079 0.3933242750700321 0  0.4886650696039162 0.290167164836657 0  0.2967504127871662 0.6055603224077222 0  0.7027937167633755 0.3910677044655248 0  0.4887377241252674 0.7151083049779022 0  0.6423788816377412 0.6816275749283278 0  0.3362407616216839 0.3287459813444831 0  0.6641807907855057 0.3294964891844869 0  0.3365522207358482 0.674132444889881 0  0.7008222792543235 0.6314207396291248 0  0.3028932399879339 0.3498271575857099 0  0.3043136860643387 0.6496715599399749 0  0.6826898107781249 0.667655524648985 0  0.6980288372772694 0.3489625944351975 0  0.3574612678836296 0.6812429049974683 0  0.3673461109158946 0.662195987301146 0  0.3887661173395019 0.6672847727625566 0  0.3757068865337152 0.6410403436953727 0  0.3981551828743613 0.6437064214043511 0  0.3839630999146905 0.6155748412261648 0  0.411850583198393 0.61602189106761 0  0.3945497680410769 0.5850542618352136 0  0.3573030943696348 0.6127402791486511 0  0.4293196751795143 0.5851556069616365 0  0.4073590370563396 0.549479090472822 0  0.3676588725850363 0.554611997506012 0  0.3834541041052488 0.514794998404234 0  0.3463209102751217 0.516791586416785 0  0.3592825434972615 0.4815644307060278 0  0.3986068600529142 0.4759479126560805 0  0.3785460545204587 0.4427452686186124 0  0.4151947165588326 0.4370453771642952 0  0.3960522375712019 0.4062232714893876 0  0.429974861380426 0.3956673599786344 0  0.3621711643376023 0.4078171415954544 0  0.4060753731372992 0.3730310033306966 0  0.4393884960539399 0.6168161497791195 0  0.4651177467638862 0.5918894989282821 0  0.4838078380789267 0.6157600498613336 0  0.5022148112236069 0.5930236744760423 0  0.5197579610128615 0.6161517282127801 0  0.5384228641388444 0.5938524549791765 0  0.555562870719463 0.6182463813643282 0  0.5746425531929238 0.5956738789683815 0  0.5917769836707969 0.6237164407796905 0  0.6104643000589555 0.5905563072093032 0  0.5959392029568796 0.55652985
[...]
<PointData  Scalars="state"> 
<DataArray  type="Float64"  Name="state"  format="ascii">0.0000000000000000e+00  0.0000000000000000e+00  0.0000000000000000e+00  0.0000000000000000e+00  0.0000000000000000e+00  0.0000000000000000e+00  0.0000000000000000e+00  0.0000000000000000e+00  -2.0146170107025598e-02  -2.0229553817795232e-02  -2.0294569119568593e-02  -2.0195913928661175e-02  1.3480031112703521e+00  0.0000000000000000e+00  0.0000000000000000e+00  0.0000000000000000e+00  0.0000000000000000e+00  0.0000000000000000e+00  0.0000000000000000e+00  0.0000000000000000e+00  0.0000000000000000e+00  0.0000000000000000e+00  0.0000000000000000e+00  0.0000000000000000e+00  0.0000000000000000e+00  0.0000000000000000e+00  0.0000000000000000e+00  0.0000000000000000e+00  0.0000000000000000e+00  0.0000000000000000e+00  0.0000000000000000e+00  0.0000000000000000e+00  0.0000000000000000e+00  0.0000000000000000e+00  0.0000000000000000e+00  0.0000000000000000e+00  0.0000000000000000e+00  0.0000000000000000e+00  0.0000000000000000e+00  0.0000000000000000e+00  0.0000000000000000e+00  0.0000000000000000e+00  0.0000000000000000e+00  0.0000000000000000e+00  0.0000000000000000e+00  0.0000000000000000e+00  0.0000000000000000e+00  0.0000000000000000e+00  0.0000000000000000e+00  0.0000000000000000e+00  0.0000000000000000e+00  0.0000000000000000e+00  0.0000000000000000e+00  0.0000000000000000e+00  0.0000000000000000e+00  0.0000000000000000e+00  0.0000000000000000e+00  0.0000000000000000e+00  0.0000000000000000e+00  0.0000000000000000e+00  0.0000000000000000e+00  0.0000000000000000e+00  0.0000000000000000e+00  0.0000000000000000e+00  0.0000000000000000e+00  0.0000000000000000e+00  0.0000000000000000e+00  0.0000000000000000e+00  0.0000000000000000e+00  0.0000000000000000e+00  0.0000000000000000e+00  0.0000000000000000e+00  0.0000000000000000e+00  0.0000000000000000e+00  0.0000000000000000e+00  0.0000000000000000e+00  0.0000000000000000e+00  0.0000000000000000e+00  0.0000000000000000e+00  0.0000000000000000e+00  0.0000000000000000e+00  0.0000000000000000e+00  0.0000000000000000e+00  0.0000000000000000e+00  0.0000000000000000e+00  0.0000000000000000e+00  0.0000000000000000e+00  0.0000000000000000e+00  0.0000000000000000e+00  0.0000000000000000e+00  0.0000000000000000e+00  0.0000000000000000e+00  0.0000000000000000e+00  0.0000000000000000e+00  0.0000000000000000e+00  0.0000000000000000e+00  0.0000000000000000e+00  0.0000000000000000e+00  0.0000000000000000e+00  0.0000000000000000e+00  0.0000000000000000e+00  0.0000000000000000e+00  0.0000000000000000e+00  0.0000000000000000e+00  0.0000000000000000e+00  0.0000000000000000e+00  0.0000000000000000e+00  0.0000000000000000e+00  0.0000000000000000e+00  0.0000000000000000e+00  0.0000000000000000e+00  0.0000000000000000e+00  0.0000000000000000e+00  0.0000000000000000e+00  0.0000000000000000e+00  0.0000000000000000e+00  0.0000000000000000e+00  0.0000000000000000e+00  0.0000000000000000e+00  0.0000000000000000e+00  0.0000000000000000e+00  0.0000000000000000e+00  0.0000000000000000e+00  0.0000000000000000e+00  0.0000000000000000e+00  0.0000000000000000e+00  0.0000000000000000e+00  0.0000000000000000e+00  0.0000000000000000e+00  0.0000000000000000e+00  0.0000000000000000e+00  0.0000000000000000e+00  0.0000000000000000e+00  0.0000000000000000e+00  0.0000000000000000e+00  0.0000000000000000e+00  0.0000000000000000e+00  0.0000000000000000e+00  0.0000000000000000e+00  0.0000000000000000e+00  0.0000000000000000e+00  0.0000000000000000e+00  0.0000000000000000e+00  0.0000000000000000e+00  0.0000000000000000e+00  0.0000000000000000e+00  0.0000000000000000e+00  0.0000000000000000e+00  0.0000000000000000e+00  0.0000000000000000e+00  0.0000000000000000e+00  0.0000000000000000e+00  0.0000000000000000e+00  0.0000000000000000e+00  0.0000000000000000e+00  0.0000000000000000e+00  0.0000000000000000e+00  0.0000000000000000e+00  0.0000000000000000e+00  0.0000000000000000e+00  0.0000000000000000e+00  0.0000000000000000e+00  0.0000000000000000e+00  0.0000000000000000e+00  0.0000000000000000e+00  0.0000000000000000e+00  0.0000000000000000e+00  0.0000000000000000e+00  0.0000000000000000e+00  0.0000000000000000e+00  0.0000000000000000e+00  0.0000000000000000e+00  0.0000000000000000e+00  0.0000000000000000e+00  0.0000000000000000e+00  0.0000000000000000e+00  0.0000000000000000e+00  0.0000000000000000e+00  0.0000000000000000e+00  0.0000000000000000e+00  0.0000000000000000e+00  -1.7480271762697095e-02  -1.5292467886290901e-02  -1.1550931036499772e-02  -8.8145137499724864e-03  -7.3261817728527837e-03  -6.8281347803055845e-03  -6.5081795566599727e-03  -7.1423898139865065e-03  -5.7920874430782187e-03  -6.1914542294688544e-03  -7.5759184245039971e-03  -9.2950324114099616e-03  -1.1295241582444059e-02  -1.4635278544670453e-02  -1.7195871367146173e-02  -1.7670928114331023e-02  -1.4625992572941792e-02  -1.0952889589607299e-02  -7.9154559067444192e-03  -7.0291945366890403e-03  -5.7925023104056575e-03  -5.8608740001902101e-03  -6.6216226760655462e-03  -5.8423914270840024e-03  -6.5162458176320302e-03  -6.5444649951473888e-03  -6.0493666416323692e-03  -6.9119889897445485e-03  -5.4040798037452960e-03  -7.6129692985420338e-03  -8.9373424430306218e-03  -1.1222329313462232e-02  -1.4483428303937229e-02  -1.7628211774543583e-02  -1.7751673613966106e-02  -1.5009390331005778e-02  -1.1536157514308880e-02  -8.5449626919800216e-03  -7.2861686361976050e-03  -6.8849462571270639e-03  -6.8756056614775038e-03  -6.2955573670401164e-03  -5.7928317398055085e-03  -6.2616529726445365e-03  -6.6949106362855157e-03  -7.9186377217803725e-03  -1.1502298598154373e-02  -1.4854433737361124e-02  -1.7623064433081401e-02  -1.7459971265427521e-02  -1.4635043676006576e-02  -1.1563684662502708e-02  -8.9188139492633618e-03  -7.5412646126903340e-03  -5.7474402192447503e-03  -7.1289542033986771e-03  -5.7280974152122419e-03  -5.9515071223062320e-03  -6.1892664705836637e-03  -6.2632640480915882e-03  -6.4538472808245810e-03  -5.3839351868617573e-03  -6.2047940301398668e-03  -7.1643613780260794e-03  -7.9036308055480380e-03  -1.0864233284749867e-02  -1.4608364378620939e-02  -1.7573753568567670e-02  5.7843563143376617e-02  5.5735283803319408e-02  5.8392769927772904e-02  5.4989466406923072e-02  5.1818792348034645e-02  6.1560712024981985e-02  5.7797333074819608e-02  5.3658308078680064e-02  5.2478172942966139e-02  6.2764440771773275e-02  6.7127488328895493e-02  6.6601691895765855e-02  6.4586208065010808e-02  5.4457895297775158e-02  4.4327698050769748e-02  7.4661123821008382e-02  5.0480744337212169e-02  4.8864776851016332e-02  6.7385097012533063e-02  4.8658092455077837e-02  3.9611744025756880e-02  4.1105032082782010e-02  3.8135175739456413e-02  3.7594514651101342e-02  2.5532757050005978e-02  2.8482805983667862e-02  2.6535797519839980e-02  2.6027611157182228e-02  4.8729515758875672e-02  8.4732673240153156e-02  1.1190733561473146e-01  1.8606707508576142e-01  2.6778302571463392e-01  5.3839639949372697e-01  7.2529169709228980e-01  7.8652820098015064e-01  2.4907449424791983e-01  9.4574143527697996e-01  9.8155181233255484e-01  7.3789436189567514e-01  9.1418187639033666e-01  5.1493584792653302e-01  7.3170934818621369e-01  9.7886170310057996e-01  8.1116032138226779e-01  9.6897564679841985e-01  7.7445736324512582e-01  8.6115968227702522e-01  4.8776699568826826e-01  5.4596403695071538e-01  8.3722749239150074e-01  1.0263583001426511e+00  9.0162280585049770e-01  1.0653474136801242e+00  8.7857905002723580e-01  1.0102129770894557e+00  8.3155858696554785e-01  8.7741350161309317e-01  6.1825389223927119e-01  7.7692438256582341e-01  9.3462839405506482e-01  7.4715275995298625e-01  9.1969766691881694e-01  4.1476754127910831e-01  2.5489364396812936e-01  2.9087486204184276e-01  4.2366456737409941e-01  2.4222120827224944e-01  1.4314596510184777e-01  6.3402669145358914e-01  9.1112359493516171e-01  1.2919305229475328e-01  2.0222369694649756e-01  5.3628026065309475e-01  3.9076341485255095e-01  6.4928489565238956e-01  9.5349914039711847e-01  5.9931240327366531e-01  8.9998264789534310e-01  1.1165830720481897e+00  9.4840054431852794e-01  7.7502490479327768e-01  7.7601507557280058e-01  1.0018551140830565e+00  7.7491991410530470e-01  5.2997021385475807e-01  4.1800053354406680e-01  5.9512832497354906e-01  1.8233735676896057e-01  1.4650803476339491e-01  9.6983201061592583e-02  1.0275984299184886e-01  1.1354834800469797e+00  1.3426539438191296e-01  1.5115466731623067e-01  1.1122448689958098e-01  1.4400538070596136e-01  8.5824913843443318e-02  8.3974983623876384e-02  1.2046075294694281e-01  5.0215769135292543e-01  1.3459250116621904e-01  7.7591160161785369e-02  1.8909714051987062e-01  3.2854271835095028e-01  1.6942474889667489e-01  1.5707781492543643e-01  2.4005094960770729e-01  1.2834211829705613e-01  1.0123732812928284e-01  8.6307379777099097e-02  1.2959546079397596e-01  9.2604599576249072e-02  1.4368979824596673e-01  6.7976387893438281e-02  3.0014677554713437e-01  1.2202644126405460e+00  8.1867658030383234e-02  1.2012868780734547e+00  5.5133400555219514e-01  1.5201182145460976e-01  4.4154799220479019e-01  1.6445165532912137e-01  8.9372105133831467e-02  7.9217963602382480e-02  1.4178785039069267e-01  4.3455522670375707e-01  1.9647841219131879e-01  1.0462217936347026e-01  1.0100312613438209e+00  5.8143010802730308e-02  4.8217605839919526e-02  3.6980339712315885e-01  1.5392162139664667e-01  1.7234568404394018e-01  3.0304541004726726e-01  1.9234667083130605e-01  1.0475378750427294e-01  1.5547871245085906e-01  1.0022874676059257e-01  7.7446822960300532e-02  6.0886816241993151e-02  3.6886607787111968e-02  4.9422467174969953e-02  8.8639181817981569e-02  6.2881731261616391e-02  6.4376776815536274e-02  6.3187470242695165e-02  3.4403948702527727e-02  3.6134271751905450e-02  6.6171595329794844e-02  1.3651965957326251e-01  3.7776500976616734e-01  4.9481920973040362e-02  6.3218794452693794e-02  7.1455186084378258e-02  4.9119347005639677e-02  7.4953034460164783e-02  6.8321439519623356e-02  6.0111458665874778e-02  3.7975388686929915e-02  5.4759177662003632e-02  6.3169015052363373e-02  5.3342354251629656e-02  7.9654616806231038e-02  6.4222860933710921e-02  1.1775323374319024e-01  6.5034504864381462e-02  5.6572405089673622e-02  3.8377567615322919e-02  3.5358937207046880e-02  7.7585682069324508e-02  2.1747336495612885e-01  5.9876830406086434e-02  6.2455236589271025e-02  8.4991683808479962e-02  2.6008055444114910e-02  2.6482735814118395e-02  2.5464493129672656e-02  2.6777058736612055e-02  5.5568327676692876e-02  1.1043974278916979e+00  1.2672165125091599e+00  9.6306217159624050e-02  5.3967864189375971e-02  5.0227926879622048e-02  5.2298345804832426e-02  3.6473704646378141e-02  6.2623942262818852e-02  8.1016100098664001e-02  1.7136688774912784e-01  2.1283618557871065e-01  6.5421338221632194e-02  1.7603367092771974e-01  1.1478742842275815e+00  1.1793587971352817e+00  8.3714824246460606e-01  1.2624476098040815e-01  8.1148628476784584e-02  1.4789219452423227e-01  1.2368635280208254e-01  1.5008884970284386e-01  5.2681079586888592e-02  5.1284749603811026e-02  1.1462114264778234e+00  4.8412168091441811e-02  1.3365857726805205e-01  1.1630453225738099e-01  5.0862339081841124e-01  6.7818743499079501e-02  4.6266498295737146e-01  8.6313861668309888e-01  5.0933466002329647e-02  1.2902947635409037e+00  6.1327542904554333e-01  2.9623815966947166e-02  3.8902195093249192e-01  1.3243937592632266e-01  1.2129909060850008e-01  1.1379193491597797e+00  5.3175945295826497e-02  1.0097143756483438e-01  1.3547726946128150e-01  1.3038490289056599e+00  8.6058579920644668e-02  1.6906292395973649e-01  1.2700806789977344e+00  2.9999189539670545e-01  1.5058163308326833e-01  1.2979627908403535e+00  5.5762371255490251e-01  7.6371234356458623e-02  9.0036057470218200e-02  2.2461740940149827e-01  7.1315661086908289e-01  1.2776382197149697e-01  4.5153571483595799e-02  4.2260974445420479e-01  2.6851214708305090e-02  2.7057272267012090e-02  2.6223060900396458e-02  2.7186414540040001e-02  8.7547803273682029e-02  5.3290223628594244e-02  7.2156424094904442e-02  5.7602951529933562e-02  1.2425760082669117e-01  6.9679633342686942e-01  6.2994068163346531e-02  7.5899210737774753e-02  2.1804375890109348e-01  8.2647692485162016e-01  6.6424856406240951e-01  8.4950189653061159e-01  7.0650978647507467e-02  8.2713236423753045e-01  1.3800974587729228e-01  6.9443937050251758e-01  1.2983938419474912e+00  1.4209109164379649e-01  5.3993242585969814e-01  2.5568256510044446e-01  1.3271430098467724e-01  3.6169876436562143e-01  8.0760311806648444e-01  1.1792380201966335e+00  3.7558989965982434e-02  -1.7168901208124667e-02  -1.7003863543053839e-02  -1.8408576900089214e-02  -2.1733249929261771e-02  -1.8416233623821377e-02  -2.2071033038928309e-02  -1.7203651540845955e-02  -1.8134337736127330e-02  -1.7299083965475630e-02  -1.8344099407795637e-02  -2.1898397335168782e-02  -2.1884696729428499e-02  -1.3804399104072369e-02  -1.3197998447667792e-02  -1.4381733464291233e-02  -1.3487174900575384e-02  -1.7404541241597824e-02  -2.1629386222650485e-02  -2.1650665561309977e-02  -1.7242032668731262e-02  -2.4600359060460347e-02  -2.6234179241125553e-02  -1.7755778704071495e-02  -1.7842560481733150e-02  -2.3269658839162041e-02  -2.6170865953129036e-02  -2.6920554868819929e-02  -2.6880960685813689e-02  -2.7422169335858709e-02  -2.7419851556233180e-02  -1.4855993788349420e-02  -1.4512784513128272e-02  -1.4839662534185217e-02  -1.4478573568743601e-02  -1.4576799605546441e-02  -1.4500835094551542e-02  -1.4640376024998958e-02  -2.7394163335232702e-02  -2.7470499866244610e-02  -2.6801943439601583e-02  -2.6113241246238442e-02  -1.5421072162454462e-02  -1.5085626030277528e-02  -1.4963791449759850e-02  -1.4822128292124453e-02  -1.5117565865990118e-02  -1.4836024738050808e-02  -1.5839351303599529e-02  -1.4379134793068162e-02  -2.6193852457560209e-02  -2.5679652563464172e-02  -1.4800532009707644e-02  -1.4424527965051510e-02  -1.4830238229477499e-02  -2.4778876960905780e-02  -2.6268286387054439e-02  -2.6550001809276570e-02  -2.7147738319248542e-02  -2.7359267829280023e-02  -2.7565304337794316e-02  -2.7330882975868356e-02  -2.7444920417800476e-02  -2.7339936063173160e-02  -2.6987351467141287e-02  -2.4638383249081283e-02  -2.6236428440910911e-02  -2.6437110678297168e-02  -2.7040327603183673e-02  -2.6659575145906257e-02  -2.7238211987098634e-02  -2.7456166485398524e-02  -2.7341314068080543e-02  -2.7219875797137083e-02  -2.6899836782300790e-02  -1.9701737394487877e-02  -2.4629074629692015e-02  -2.6268493820678741e-02  -2.6204041236530654e-02  -2.6965519257206350e-02  -2.6917343329770783e-02  -2.7451231310486410e-02  -2.7468332803326490e-02  -2.7442670222086962e-02  -2.7448980199714285e-02  -1.6544475982924484e-02  -1.7180397380967879e-02  -1.8888575368992085e-02  -1.8846538856305082e-02  -2.7190810790746388e-02  -2.6672003868280923e-02  -2.6594136623890093e-02  -2.6715124587371519e-02  -2.6811484374810488e-02  -2.6862529933931838e-02  -1.4421568731066458e-02  -2.6458418900541653e-02  -2.7204842660431897e-02  -2.6645651603373153e-02  -2.6409267025187512e-02  -2.7006060748611404e-02  -2.7098117160501711e-02  -1.9569389472588114e-02  -2.5036024653534356e-02  -2.5215330770473852e-02  -1.2436571782916564e-02  -1.2138553867055410e-02  -1.2371978570743916e-02  -2.5021818260259697e-02  -2.5094588993761654e-02  -2.4535880306710306e-02  -2.4228473563053268e-02  -2.5684224406909300e-02  -2.6350104209202946e-02  -2.5578569209832789e-02  -2.6195779461412577e-02  -2.4889587195328185e-02  -2.6024830925503294e-02  -2.4461378010213877e-02  -2.5221791910630151e-02  -2.3868096189905947e-02  -2.4156954414084473e-02  -2.5065705705716562e-02  -2.6105832747966733e-02  -2.4557204016029666e-02  -2.5190575107618279e-02  -2.3923148235451892e-02  -2.4279071399482436e-02  -2.3276584820399099e-02  -2.3525895588346012e-02  -2.2757610185960200e-02  -2.3035241870024835e-02  -2.2407718526436630e-02  -2.2828472857407911e-02  -2.2292479126727369e-02  -2.2912289111497272e-02  -2.3166110755806726e-02  -2.3389313895211927e-02  -2.2623865567394340e-02  -2.2895664788933151e-02  -2.2265818585377642e-02  -2.2686159149415751e-02  -2.2141058983742717e-02  -2.2772869804619341e-02  -2.4867025320217850e-02  -2.4879912177697264e-02  -2.6697759203353658e-02  -2.6598634750272160e-02  -2.4807308886746270e-02  -2.4645702145094060e-02  -2.2486764569513550e-02  -2.3296032293660580e-02  -2.2810443985286252e-02  -2.3906197398095269e-02  -2.3215473947186857e-02  -2.2338681050338136e-02  -2.3153382290107730e-02  -2.2660035036322336e-02  -2.3771251513012480e-02  -2.3082731270019786e-02  -2.6945765987617450e-02  -2.5522590658002216e-02  -2.5177769767869725e-02  -2.3360456052712777e-02  -2.4039183851266056e-02  -2.3473622409419012e-02  -2.4139416833412978e-02  -2.2539208345207975e-02  -2.2785218862081298e-02  -2.2681477135421717e-02  -2.2969032557094420e-02  -2.2903186199144880e-02  -2.0774085104134459e-02  -2.3021354740069860e-02  -2.4257636285497410e-02  -2.3205022493352125e-02  -2.2390094866054353e-02  -2.0622433720198521e-02  -2.4299486361963125e-02  -2.2867895263835068e-02  -2.4185433970749431e-02  -2.2144104392231596e-02  -2.4329961410462734e-02  -2.2192792599183615e-02  -2.2096727965971327e-02  -2.1847993711553659e-02  -2.3930844906817451e-02  -2.1681721455262516e-02  -2.3815270494303944e-02  -1.8729072769744445e-02  -2.6360496815958558e-02  -9.6452132169744069e-03  -2.5169810405380910e-02  -2.6470396364779145e-02  -2.1616425793062610e-02  -2.1587332673212230e-02  -2.3141178086843874e-02  -2.1721683798926427e-02  -2.5649950486698259e-02  -2.5501342143056979e-02  -2.5228503975021979e-02  -2.6148193906216227e-02  -2.5375228842059935e-02  -2.5741151694352375e-02  -2.4984956842008802e-02  -2.4392457298826810e-02  -2.3909787363828258e-02  -2.5220156559730578e-02  -2.4038210760716605e-02  -2.3331297252568425e-02  -2.3132267084989191e-02  -2.2775255907228543e-02  -2.2597622897637566e-02  -2.2488446907223725e-02  -2.2326606641640979e-02  -2.3281516008020354e-02  -2.3112762516692486e-02  -2.1755164221591815e-02  -2.3808480633993288e-02  -2.3527180964587117e-02  -2.2863507747730424e-02  -1.9120930902997536e-02  -2.2489685058179006e-02  -2.1875378806015342e-02  -2.2239531036734730e-02  -2.1609946804364063e-02  -9.1738825181053741e-03  -9.9451828229380861e-03  -9.4677058776249639e-03  -2.5898135727602190e-02  -2.3841369246015764e-02  -2.6544531059523917e-02  -2.4426797698931305e-02  -2.5678012638283846e-02  -1.9333852527465927e-02  -2.0033166235530961e-02  -2.0229698332556861e-02  -2.3282042932007210e-02  -2.4524052304281316e-02  -2.5363986500030161e-02  -2.4450302539331815e-02  -2.3263003570072143e-02  -2.3483076250245684e-02  -2.3537798584693844e-02  -2.2939634813312397e-02  -2.2788474999365444e-02  -2.2639882540874293e-02  -2.1923109758261432e-02  -2.2449664351581189e-02  -2.2241711867951503e-02  -2.2458001673084316e-02  -2.2367695063416508e-02  -2.2885437008807508e-02  -2.2336888588826629e-02  -2.3409042600236390e-02  -2.3222323853871442e-02  -2.4078331862276033e-02  -2.3728389393068035e-02  -2.4996047809952147e-02  -2.3793624934372985e-02  -2.5615279546373368e-02  -2.3306663121462921e-02  -2.5103883358607103e-02  -2.2818998702348881e-02  -2.3821101873832837e-02  -2.2191911033201617e-02  -2.5755130266486511e-02  -2.5269451629155840e-02  -2.1712681559490792e-02  -2.0294401435736784e-02  -2.2892574637127600e-02  -2.2278418117654075e-02  -2.5768706896160738e-02  -2.2096026340422060e-02  -2.4942935016818192e-02  -2.1295949802782297e-02  -2.0889228247281445e-02  -2.2936233668383179e-02  -2.5730000981648470e-02  -2.0802224622906394e-02  -2.4102354342045457e-02  -2.1654968682400841e-02  -2.0842093221749691e-02  -2.1164920903260356e-02  -2.0986286257745138e-02  -2.3546954220667854e-02  -2.1957364451289988e-02  -2.2516233296903838e-02  -2.1901354885310267e-02  -2.3385089273945371e-02  -2.4124843860586258e-02  -2.0648565228851338e-02  -2.1422978117100328e-02  -1.7318391404808644e-02  -2.1305627607435963e-02  -2.2377980225048673e-02  -2.4739354874628333e-02  -2.2528617524717093e-02  -2.1485204828896438e-02  -1.7257