<?xml version="1.0"?>
<VTKFile type="UnstructuredGrid"  version="0.1"  >
<UnstructuredGrid>
<Piece  NumberOfPoints="1297" NumberOfCells="2496">
<Points>
<DataArray  type="Float64"  NumberOfComponents="3"  format="ascii">0 0 0  0 1 0  1 1 0  1 0 0  1.1 -0.1 0  -0.1 -0.1 0  1.1 1.1 0  -0.1 1.1 0  0.2821788698337505 0.6844556767145175 0  0.2823551917555098 0.3162468146864932 0  0.7180082820856855 0.3156700263902472 0  0.7178412812834261 0.6845821855333308 0  0.5001026800591457 0.500162984356688 0  0 0.9499999999997918 0  0 0.8999999999995836 0  0 0.8499999999996529 0  0 0.7999999999999998 0  0 0.7500000000003466 0  0 0.7000000000006934 0  0 0.6500000000010401 0  0 0.6000000000013869 0  0 0.5500000000017335 0  0 0.5000000000020587 0  0 0.4500000000018723 0  0 0.4000000000016644 0  0 0.3500000000014564 0  0 0.3000000000012483 0  0 0.2500000000010403 0  0 0.2000000000008322 0  0 0.1500000000006241 0  0 0.100000000000416 0  0 0.05000000000020799 0  0.04999999999989965 0 0  0.09999999999981467 0 0  0.1499999999997036 0 0  0.1999999999995579 0 0  0.2499999999994121 0 0  0.2999999999992664 0 0  0.3499999999991206 0 0  0.3999999999989749 0 0  0.4499999999988292 0 0  0.4999999999986943 0 0  0.5499999999988151 0 0  0.5999999999989468 0 0  0.6499999999990784 0 0  0.69999999999921 0 0  0.7499999999993417 0 0  0.7999999999994734 0 0  0.8499999999996051 0 0  0.8999999999997368 0 0  0.9499999999998684 0 0  1 0.04999999999989965 0  1 0.09999999999981467 0  1 0.1499999999997036 0  1 0.1999999999995579 0  1 0.2499999999994121 0  1 0.2999999999992664 0  1 0.3499999999991206 0  1 0.3999999999989749 0  1 0.4499999999988292 0  1 0.4999999999986943 0  1 0.5499999999988151 0  1 0.5999999999989468 0  1 0.6499999999990784 0  1 0.69999999999921 0  1 0.7499999999993417 0  1 0.7999999999994734 0  1 0.8499999999996051 0  1 0.8999999999997368 0  1 0.9499999999998684 0  0.9499999999997918 1 0  0.8999999999995836 1 0  0.8499999999996529 1 0  0.7999999999999998 1 0  0.7500000000003466 1 0  0.7000000000006934 1 0  0.6500000000010401 1 0  0.6000000000013869 1 0  0.5500000000017335 1 0  0.5000000000020587 1 0  0.4500000000018723 1 0  0.4000000000016644 1 0  0.3500000000014564 1 0  0.3000000000012483 1 0  0.2500000000010403 1 0  0.2000000000008322 1 0  0.1500000000006241 1 0  0.100000000000416 1 0  0.05000000000020799 1 0  -0.1 1.05000000000004 0  -0.1 1.000000000000079 0  -0.1 0.9500000000001624 0  -0.1 0.9000000000003032 0  -0.1 0.850000000000444 0  -0.1 0.8000000000005848 0  -0.1 0.7500000000007256 0  -0.1 0.7000000000008665 0  -0.1 0.6500000000010508 0  -0.1 0.6000000000012352 0  -0.1 0.5500000000014196 0  -0.1 0.500000000001539 0  -0.1 0.4500000000014195 0  -0.1 0.4000000000013 0  -0.1 0.3500000000011588 0  -0.1 0.3000000000010178 0  -0.1 0.2500000000008986 0  -0.1 0.2000000000007579 0  -0.1 0.1500000000006174 0  -0.1 0.1000000000005272 0  -0.1 0.05000000000040083 0  -0.1 2.671196597248127e-13 0  -0.1 -0.0499999999998666 0  -0.0500000000000906 -0.1 0  -1.730560139634463e-13 -0.1 0  0.04999999999975802 -0.1 0  0.09999999999961506 -0.1 0  0.1499999999994613 -0.1 0  0.199999999999302 -0.1 0  0.2499999999991446 -0.1 0  0.2999999999990088 -0.1 0  0.3499999999988296 -0.1 0  0.3999999999986936 -0.1 0  0.4499999999985143 -0.1 0  0.4999999999984002 -0.1 0  0.5499999999985247 -0.1 0  0.5999999999986493 -0.1 0  0.6499999999987955 -0.1 0  0.6999999999989417 -0.1 0  0.7499999999990659 -0.1 0  0.7999999999992116 -0.1 0  0.8499999999993573 -0.1 0  0.8999999999994526 -0.1 0  0.949999999999584 -0.1 0  0.9999999999997226 -0.1 0  1.049999999999861 -0.1 0  1.1 -0.0500000000000906 0  1.1 -1.730560139634463e-13 0  1.1 0.04999999999975802 0  1.1 0.09999999999961506 0  1.1 0.1499999999994613 0  1.1 0.199999999999302 0  1.1 0.2499999999991446 0  1.1 0.2999999999990088 0  1.1 0.3499999999988296 0  1.1 0.3999999999986936 0  1.1 0.4499999999985143 0  1.1 0.4999999999984002 0  1.1 0.5499999999985247 0  1.1 0.5999999999986493 0  1.1 0.6499999999987955 0  1.1 0.6999999999989417 0  1.1 0.7499999999990659 0  1.1 0.7999999999992116 0  1.1 0.8499999999993573 0  1.1 0.8999999999994526 0  1.1 0.949999999999584 0  1.1 0.9999999999997226 0  1.1 1.049999999999861 0  1.05000000000004 1.1 0  1.000000000000079 1.1 0  0.9500000000001624 1.1 0  0.9000000000003032 1.1 0  0.850000000000444 1.1 0  0.8000000000005848 1.1 0  0.7500000000007256 1.1 0  0.7000000000008665 1.1 0  0.6500000000010508 1.1 0  0.6000000000012352 1.1 0  0.5500000000014196 1.1 0  0.500000000001539 1.1 0  0.4500000000014195 1.1 0  0.4000000000013 1.1 0  0.3500000000011588 1.1 0  0.3000000000010178 1.1 0  0.2500000000008986 1.1 0  0.2000000000007579 1.1 0  0.1500000000006174 1.1 0  0.1000000000005272 1.1 0  0.05000000000040083 1.1 0  2.671196597248127e-13 1.1 0  -0.0499999999998666 1.1 0  0.2768512637864999 0.6678553565448909 0  0.2741706589255155 0.646609098821755 0  0.2726601598973427 0.6232780661904932 0  0.2709675192948434 0.5984797729077679 0  0.2687940707561762 0.5732382582032878 0  0.2663885970310846 0.5484639810668195 0  0.2645897956053984 0.5242723093247547 0  0.2641057561999403 0.500430530313698 0  0.2649320258851425 0.4764785008804734 0  0.2668672024270816 0.45214760165595 0  0.2692236485444577 0.4272351676662811 0  0.2712818694108854 0.4019812075899815 0  0.272845905802543 0.3773023794513059 0  0.2743450554189851 0.3540444541183427 0  0.277037539520288 0.3328279589754797 0  0.298225077165937 0.3091685656982696 0  0.3185312800615617 0.3038639904934761 0  0.3411738835771976 0.2988683143062731 0  0.3649600229488187 0.2926542826315788 0  0.3884726466794815 0.2848490627428992 0  0.410919374187924 0.2766001377188608 0  0.4328691253687881 0.2692204879378342 0  0.4547681272141015 0.2633897705782149 0  0.4771391033003645 0.2592467352848402 0  0.4999496974179901 0.2576050572232331 0  0.5227891828905697 0.2587262333094349 0  0.5453090891770354 0.2625451687036838 0  0.5670288856719045 0.2687380721264826 0  0.5890793061217267 0.2758635261209728 0  0.6114858991304781 0.2839626307420864 0  0.6350138617669674 0.2915833019061143 0  0.6589190893861042 0.2978917773521373 0  0.6815884763889307 0.3031104570973077 0  0.7019701039028678 0.3085767452749775 0  0.7233001592080261 0.3325268454186374 0  0.7260563546752115 0.353734300379054 0  0.7276091698047205 0.3771737285032717 0  0.7292108098213782 0.4020390287388982 0  0.7314167295896677 0.4273362591925552 0  0.7338343177564394 0.4521954432131293 0  0.7356588963410969 0.4764169172088183 0  0.7363059341410438 0.500338348816783 0  0.7355436183841508 0.5242949325739042 0  0.7334711108043974 0.5484842512138476 0  0.7308428602233151 0.573254511245373 0  0.7286032732347435 0.5984778604281046 0  0.7272877518497199 0.6232207034977556 0  0.7258577317652193 0.646577186749132 0  0.7231310572583778 0.6677425358605442 0  0.7018456420661661 0.6916892545716076 0  0.6814946959340227 0.6971349958586149 0  0.65878274856507 0.7023558138602045 0  0.6348919344693476 0.7086660165113784 0  0.6113958469169991 0.7163268419201986 0  0.5890650983793019 0.7245488866247474 0  0.5670946471868499 0.7318960475084421 0  0.5453601768893241 0.7382736867695923 0  0.5228617400070518 0.7423738159542117 0  0.4999753997236959 0.7437605745311993 0  0.4771269720218586 0.7423433618050373 0  0.4547071427513988 0.7383233123964597 0  0.432690945164319 0.7323355880409005 0  0.4109400533093889 0.7245588018637389 0  0.3886195294645281 0.7162219431969862 0  0.364951117664959 0.7083961929805622 0  0.3411114889927146 0.7020768024165828 0  0.3184775121364379 0.6969582027074431 0  0.2981054915943372 0.6915677299060685 0  0.3758058320757393 0.3121912295136492 0  0.2872025061130296 0.4388613077895761 0  0.3758522483322822 0.6886704783973365 0  0.2868908638146959 0.5617159554604012 0  0.7123357355171074 0.5860312130843258 0  0.6012331210106061 0.6956474037828698 0  0.6231956790545526 0.310833075167494 0  0.7146394375393628 0.4381642723992408 0  0.7166416000957903 0.5118947098773019 0  0.5559816458089099 0.2931075494050046 0  0.4441457634197515 0.295989901656326 0  0.4428675605260326 0.7052548262173841 0  0.5342631370642505 0.7096565391811136 0  0.2843425588072738 0.4881445203486779 0  0.2894594410950419 0.3889981162421197 0  0.4885634463076938 0.293434097577235 0  0.294319985450903 0.6097021973297696 0  0.7059553664854873 0.3867908340455967 0  0.4886047612152322 0.7116553754821724 0  0.6472902814447511 0.6838156177331993 0  0.3296871492347103 0.324073766049957 0  0.6707380056861089 0.324820909978302 0  0.3302882936545754 0.6788564866933638 0  0.7067743362663552 0.6369922316386548 0  0.2939487809380437 0.3425780466683178 0  0.2960959564162311 0.6567424338106552 0  0.6913712032564282 0.6750586295865754 0  0.7070563643010082 0.341645437271273 0  0.3527935324972724 0.683374244127575 0  0.3637936941761433 0.6636828364133256 0  0.3861082127511796 0.6673252492224085 0  0.3732521770852824 0.6420741832919131 0  0.3963451359963518 0.6437774144452452 0  0.3825902533866598 0.6162283117125429 0  0.4108479903410047 0.6160436593954119 0  0.3939472778334699 0.5854904233243595 0  0.3554803893912135 0.6144493315144641 0  0.4288537307723037 0.5851577768426941 0  0.4071718405743259 0.5497065541877374 0  0.3675903040145088 0.5553074048328956 0  0.3835600179176909 0.514949946327445 0  0.3469092695096219 0.517106291595247 0  0.3596111846427364 0.4813041425264649 0  0.3985809091493134 0.4758126287118162 0  0.3783337888915222 0.4422187952067694 0  0.4148648365259106 0.4369100762972598 0  0.3952393465030639 0.4058792166525351 0  0.4292832028640537 0.3958210207221529 0  0.3611604758928797 0.4066375023027201 0  0.4047603485077151 0.3730757455307923 0  0.4386907985174909 0.6165248307195788 0  0.4648476103802102 0.5916489946682003 0  0.4836373601150462 0.615296054323386 0  0.5022586054446126 0.5927148715393287 0  0.5200274224797312 0.6156810338904849 0  0.5387769237203853 0.5935991635731571 0  0.5562684945558157 0.6178955776901947 0  0.5752745457774512 0.5956366563618414 0  0.593022059105114 0.6237159186932913 0  0.6112122433965101 0.5910383763388952 0  0.59619487026961
[...]
<CellData  Scalars="subdomains">
<DataArray  type="Float64"  Name="subdomains"  format="ascii">1 1 1 1 1 1 1 1 1 1 1 1 1 1 1 1 1 1 1 1 1 1 1 1 1 1 1 1 1 1 1 1 1 1 1 1 1 1 1 1 1 1 1 1 1 1 1 1 1 1 1 1 1 1 1 1 1 1 1 1 1 1 1 1 1 1 1 1 1 1 1 1 1 1 1 1 1 1 1 1 1 1 1 1 1 1 1 1 1 1 1 1 1 1 1 1 1 1 1 1 1 1 1 1 1 1 1 1 1 1 1 1 1 1 1 1 1 1 1 1 1 1 1 1 1 1 1 1 1 1 1 1 1 1 1 1 1 1 1 1 1 1 1 1 1 1 1 1 1 1 1 1 1 1 1 1 1 1 1 1 1 1 1 1 1 1 1 1 1 1 1 1 1 1 1 1 1 1 1 1 1 1 1 1 1 1 1 1 1 1 1 1 1 1 1 1 1 1 1 1 1 1 1 1 1 1 1 1 1 1 1 1 1 1 1 1 1 1 1 1 1 1 1 1 1 1 1 1 1 1 1 1 1 1 1 1 1 1 1 1 1 1 1 1 1 1 1 1 1 1 1 1 1 1 1 1 1 1 1 1 1 1 1 1 1 1 1 1 1 1 1 1 1 1 1 1 1 1 1 1 1 1 1 1 1 1 1 1 1 1 1 1 1 1 1 1 1 1 1 1 1 1 1 1 1 1 1 1 1 1 1 1 1 1 1 1 1 1 1 1 1 1 1 1 1 1 1 1 1 1 1 1 1 1 1 1 1 1 1 1 1 1 1 1 1 1 1 1 1 1 1 1 1 1 1 1 1 1 1 1 1 1 1 1 1 1 1 1 1 1 1 1 1 1 1 1 1 1 1 1 1 1 1 1 1 1 1 1 1 1 1 1 1 1 1 1 1 1 1 1 1 1 1 1 1 1 1 1 1 1 1 1 1 1 1 1 1 1 1 1 1 1 1 1 1 1 1 1 1 1 1 1 1 1 1 1 1 1 1 1 1 1 1 1 1 1 1 1 1 1 1 1 1 1 1 1 1 1 1 1 1 1 1 1 1 1 1 1 1 1 1 1 1 1 1 1 1 1 1 1 1 1 1 1 1 1 1 1 1 1 1 1 1 1 1 1 1 1 1 1 1 1 1 1 1 1 1 1 1 1 1 1 1 1 1 1 1 1 1 1 1 1 1 1 1 1 1 1 1 1 1 1 1 1 1 1 1 1 1 1 1 1 1 1 1 1 1 1 1 1 1 1 1 1 1 1 1 1 1 1 1 1 1 1 1 1 1 1 1 1 1 1 1 1 1 1 1 1 1 1 1 1 1 1 1 1 1 1 1 1 1 1 1 1 1 1 1 1 1 1 1 1 1 1 1 1 2 2 2 2 2 2 2 2 2 2 2 2 2 2 2 2 2 2 2 2 2 2 2 2 2 2 2 2 2 2 2 2 2 2 2 2 2 2 2 2 2 2 2 2 2 2 2 2 2 2 2 2 2 2 2 2 2 2 2 2 2 2 2 2 2 2 2 2 2 2 2 2 2 2 2 2 2 2 2 2 2 2 2 2 2 2 2 2 2 2 2 2 2 2 2 2 2 2 2 2 2 2 2 2 2 2 2 2 2 2 2 2 2 2 2 2 2 2 2 2 2 2 2 2 2 2 2 2 2 2 2 2 2 2 2 2 2 2 2 2 2 2 2 2 2 2 2 2 2 2 2 2 2 2 2 2 2 2 2 2 2 2 2 2 2 2 2 2 2 2 2 2 2 2 2 2 2 2 2 2 2 2 2 2 2 2 2 2 2 2 2 2 2 2 2 2 2 2 2 2 2 2 2 2 2 2 2 2 2 2 2 2 2 2 2 2 2 2 2 2 2 2 2 2 2 2 2 2 2 2 2 2 2 2 2 2 2 2 2 2 2 2 2 2 2 2 2 2 2 2 2 2 2 2 2 2 2 2 2 2 2 2 2 2 2 2 2 2 2 2 2 2 2 2 2 2 2 2 2 2 2 2 2 2 2 2 2 2 2 2 2 2 2 2 2 2 2 2 2 2 2 2 2 2 2 2 2 2 2 2 2 2 2 2 2 2 2 2 2 2 2 2 2 2 2 2 2 2 2 2 2 2 2 2 2 2 2 2 2 2 2 2 2 2 2 2 2 2 2 2 2 2 2 2 2 2 2 2 2 2 2 2 2 2 2 2 2 2 2 2 2 2 2 2 2 2 2 2 2 2 2 2 2 2 2 2 2 2 2 2 2 2 2 2 2 2 2 2 2 2 2 2 2 2 2 2 2 2 2 2 2 2 2 2 2 2 2 2 2 2 2 2 2 2 2 2 2 2 2 2 2 2 2 2 2 2 2 2 2 2 2 2 2 2 2 2 2 2 2 2 2 2 2 2 2 2 2 2 2 2 2 2 2 2 2 2 2 2 2 2 2 2 2 2 2 2 2 2 2 2 2 2 2 2 2 2 2 2 2 2 2 2 2 2 2 2 2 2 2 2 2 2 2 2 2 2 2 2 2 2 2 2 2 2 2 2 2 2 2 2 2 2 2 2 2 2 2 2 2 2 2 2 2 2 2 2 2 2 2 2 2 2 2 2 2 2 2 2 2 2 2 2 2 2 2 2 2 2 2 2 2 2 2 2 2 2 2 2 2 2 2 2 2 2 2 2 2 2 2 2 2 2 2 2 2 2 2 2 2 2 2 2 2 2 2 2 2 2 2 2 2 2 2 2 2 2 2 2 2 2 2 2 2 2 2 2 2 2 2 2 2 2 2 2 2 2 2 2 2 2 2 2 2 2 2 2 2 2 2 2 2 2 2 2 2 2 2 2 2 2 2 2 2 2 2 2 2 2 2 2 2 2 2 2 2 2 2 2 2 2 2 2 2 2 2 2 2 2 2 2 2 2 2 2 2 2 2 2 2 2 2 2 2 2 2 2 2 2 2 2 2 2 2 2 2 2 2 2 2 2 2 2 2 2 2 2 2 2 2 2 2 2 2 2 2 2 2 2 2 2 2 2 2 2 2 2 2 2 2 2 2 2 2 2 2 2 2 2 2 2 2 2 2 2 2 2 2 2 2 2 2 2 2 2 2 2 2 2 2 2 2 2 2 2 2 2 2 2 2 2 2 2 2 2 2 2 2 2 2 2 2 2 2 2 2 2 2 2 2 2 2 2 2 2 2 2 2 2 2 2 2 2 2 2 2 2 2 2 2 2 2 2 2 2 2 2 2 2 2 2 2 2 2 2 2 2 2 2 2 2 2 2 2 2 2 2 2 2 2 2 2 2 2 2 2 2 2 2 2 2 2 2 2 2 2 2 2 2 2 2 2 2 2 2 2 2 2 2 2 2 2 2 2 2 2 2 2 2 2 2 2 2 2 2 2 2 2 2 2 2 2 2 2 2 2 2 2 2 2 2 2 2 2 2 2 2 2 2 2 2 2 2 2 2 2 2 2 2 2 2 2 2 2 2 2 2 2 2 2 2 2 2 2 2 2 2 2 2 2 2 2 2 2 2 2 2 2 2 2 2 2 2 2 2 2 2 2 2 2 2 2 2 2 2 2 2 2 2 2 2 2 2 2 2 2 2 2 2 2 2 2 2 2 2 2 2 2 2 2 2 2 2 2 2 2 2 2 2 2 2 2 2 2 2 2 2 2 2 2 2 2 2 2 2 2 2 2 2 2 2 2 2 2 2 2 2 2 2 2 2 2 2 2 2 2 2 2 2 2 2 2 2 2 2 2 2 2 2 2 2 2 2 2 2 2 2 2 2 2 2 2 2 2 2 2 2 2 2 2 2 2 2 2 2 2 2 2 2 2 2 2 2 2 2 2 2 2 2 2 2 2 2 2 2 2 2 2 2 2 2 2 2 2 2 2 2 2 2 2 2 2 2 2 2 2 2 2 2 2 2 2 2 2 2 2 2 2 2 2 2 2 2 2 2 2 2 2 2 2 2 2 2 2 2 2 2 2 2 2 2 2 2 2 2 2 2 2 2 2 2 2 2 2 2 2 2 2 2 2 2 2 2 2 2 2 2 2 2 2 2 2 2 2 2 2 2 2 2 2 2 2 2 2 2 2 2 2 2 2 2 2 2 2 2 2 2 2 2 2 2 2 2 2 2 2 2 2 2 2 2 2 2 2 2 2 2 2 2 2 2 2 2 2 2 2 2 2 2 2 2 2 2 2 2 2 2 2 2 2 2 2 2 2 2 2 2 2 2 2 2 2 2 2 2 2 2 2 2 2 2 2 2 2 2 2 2 2 2 2 2 2 2 2 2 2 2 2 2 2 2 2 2 2 2 2 2 2 2 2 2 2 2 2 2 2 2 2 2 2 2 2 2 2 2 2 2 2 2 2 2 2 2 2 2 2 2 2 2 2 2 2 2 2 2 2 2 2 2 2 2 2 2 2 2 2 2 2 2 2 2 2 2 2 2 2 2 2 2 2 2 2 2 2 2 2 2 2 2 2 2 2 2 2 2 2 2 2 2 2 2 2 2 2 2 2 2 2 2 2 2 2 2 2 2 2 2 2 2 2 2 2 2 2 2 2 2 2 2 2 2 2 2 2 2 2 2 2 2 2 2 2 2 2 2 2 2 2 2 2 2 2 2 2 2 2 2 2 2 2 2 2 2 2 2 2 2 2 2 2 2 2 2 2 2 2 2 2 2 2 2 2 2 2 2 2 2 2 2 2 2 2 2 2 2 2 2 2 2 2 2 2 2 2 2 2 2 2 2 2 2 2 2 2 2 2 2 2 2 2 2 2 2 2 2 2 2 2 2 2 2 2 2 2 2 2 2 2 2 2 2 3 3 3 3 3 3 3 3 3 3 3 3 3 3 3 3 3 3 3 3 3 3 3 3 3 3 3 3 3 3 3 3 3 3 3 3 3 3 3 3 3 3 3 3 3 3 3 3 3 3 3 3 3 3 3 3 3 3 3 3 3 3 3 3 3 3 3 3 3 3 3 3 3 3 3 3 3 3 3 3 3 3 3 3 3 3 3 3 3 3 3 3 3 3 3 3 3 3 3 3 3 3 3 3 3 3 3 3 3 3 3 3 3 3 3 3 3 3 3 3 3 3 3 3 3 3 3 3 3 3 3 3 3 3 3 3 3 3 3 3 3 3 3 3 3 3 3 3 3 3 3 3 3 3 3 3 3 3 3 3 3 3 3 3 3 3 3 3 3 3 3 3 3 3 3 3 3 3 3 3 3 3 3 3 3 3 3 3 3 3 3 3 3 3 3 3 3 3 3 3 3 3 3 3 3 3 3 3 3 3 3 3 3 3 3 3 3 3 3 3 3 3 3 3 3 3 3 3 3 3 3 3 3 3 3 3 3 3 3 3 3 3 3 3 3 3 3 3 3 3 3 3 3 3 3 3 3 3 3 3 3 3 3 3 3 3 3 3 3 3 3 3 3 3 3 3 3 3 3 3 3 3 3 3 3 3 3 3 3 3 3 3 3 3 3 3 3 3 3 3 3 3 3 3 3 3 3 3 3 3 3 3 3 3 3 3 3 3 3 3 3 3 3 3 3 3 3 3 3 3 3 3 3 3 3 3 3 3 3 3 3 3 3 3 3 3 3 3 3 3 3 3 3 3 3 3 3 3 3 3 </DataArray>
</CellData>
</Piece>
</UnstructuredGrid>
</VTKFile>