<?xml version="1.0"?>
<VTKFile type="UnstructuredGrid"  version="0.1"  >
<UnstructuredGrid>
<Piece  NumberOfPoints="1254" NumberOfCells="3663">
<Points>
<DataArray  type="Float64"  NumberOfComponents="3"  format="ascii">0 0 0  0 1 0  1 1 0  1 0 0  0.25 0.5 0  1.1 -0.1 0  -0.1 -0.1 0  1.1 1.1 0  -0.1 1.1 0  0.5 0.5 0  0 0.9499999999997918 0  0 0.8999999999995836 0  0 0.8499999999996529 0  0 0.7999999999999998 0  0 0.7500000000003466 0  0 0.7000000000006934 0  0 0.6500000000010401 0  0 0.6000000000013869 0  0 0.5500000000017335 0  0 0.5000000000020587 0  0 0.4500000000018723 0  0 0.4000000000016644 0  0 0.3500000000014564 0  0 0.3000000000012483 0  0 0.2500000000010403 0  0 0.2000000000008322 0  0 0.1500000000006241 0  0 0.100000000000416 0  0 0.05000000000020799 0  0.04999999999989965 0 0  0.09999999999981467 0 0  0.1499999999997036 0 0  0.1999999999995579 0 0  0.2499999999994121 0 0  0.2999999999992664 0 0  0.3499999999991206 0 0  0.3999999999989749 0 0  0.4499999999988292 0 0  0.4999999999986943 0 0  0.5499999999988151 0 0  0.5999999999989468 0 0  0.6499999999990784 0 0  0.69999999999921 0 0  0.7499999999993417 0 0  0.7999999999994734 0 0  0.8499999999996051 0 0  0.8999999999997368 0 0  0.9499999999998684 0 0  1 0.04999999999989965 0  1 0.09999999999981467 0  1 0.1499999999997036 0  1 0.1999999999995579 0  1 0.2499999999994121 0  1 0.2999999999992664 0  1 0.3499999999991206 0  1 0.3999999999989749 0  1 0.4499999999988292 0  1 0.4999999999986943 0  1 0.5499999999988151 0  1 0.5999999999989468 0  1 0.6499999999990784 0  1 0.69999999999921 0  1 0.7499999999993417 0  1 0.7999999999994734 0  1 0.8499999999996051 0  1 0.8999999999997368 0  1 0.9499999999998684 0  0.9499999999997918 1 0  0.8999999999995836 1 0  0.8499999999996529 1 0  0.7999999999999998 1 0  0.7500000000003466 1 0  0.7000000000006934 1 0  0.6500000000010401 1 0  0.6000000000013869 1 0  0.5500000000017335 1 0  0.5000000000020587 1 0  0.4500000000018723 1 0  0.4000000000016644 1 0  0.3500000000014564 1 0  0.3000000000012483 1 0  0.2500000000010403 1 0  0.2000000000008322 1 0  0.1500000000006241 1 0  0.100000000000416 1 0  0.05000000000020799 1 0  0.2512423061647941 0.4751080382896405 0  0.2549568780650003 0.450463464065915 0  0.2611067986085233 0.4263112062187787 0  0.2696309471236936 0.4028913007147478 0  0.2804446067965471 0.3804365050892322 0  0.293440306626443 0.3591699851827668 0  0.308488889513686 0.3393030972286684 0  0.3254407958459123 0.3210332873266887 0  0.344127549981932 0.3045421290268288 0  0.3643634345900644 0.2899935188528786 0  0.3859473363441576 0.277532047447262 0  0.4086647447019039 0.2672815625275221 0  0.4322898838855364 0.2593439380032868 0  0.4565879565934555 0.2537980615688246 0  0.4813174777220277 0.2506990506208749 0  0.50623267412383 0.2500777045294555 0  0.5310859274396894 0.2519401985100884 0  0.555630234828706 0.2562680222603053 0  0.5796216639118213 0.2630181639114234 0  0.6028217771335632 0.2721235375316357 0  0.6250000013462933 0.2834936498311732 0  0.6459359193853307 0.2970154995248202 0  0.6654214606987447 0.3125547004049084 0  0.6832629691650047 0.3299568168586975 0  0.6992831279176015 0.3490488988865041 0  0.7133227214184995 0.3696412008086709 0  0.7252422178523719 0.3915290670412361 0  0.7349231559191535 0.4144949661541198 0  0.7422693220980935 0.4383106527013762 0  0.7472077069009581 0.4627394357427315 0  0.7496892304232642 0.4875385309598708 0  0.7496892301867037 0.512461473780066 0  0.7472077062136133 0.5372605688175031 0  0.7422693210070724 0.5616893515833331 0  0.7349231544644775 0.5855050378425694 0  0.7252422160814939 0.6084709366360299 0  0.7133227193654776 0.6303588025509503 0  0.6992831256472231 0.6509511041108117 0  0.6832629667039348 0.670043185793705 0  0.665421458092008 0.6874453018955504 0  0.6459359166885593 0.7029845024140263 0  0.6249999986385766 0.7165063517321278 0  0.6028217744473283 0.7278764636804397 0  0.5796216611488455 0.736981837016887 0  0.5556302321289374 0.7437319783558992 0  0.5310859248353553 0.7480598018162771 0  0.5062326716991737 0.7499222955310116 0  0.4813174754524939 0.749300949209047 0  0.4565879544614571 0.7462019380552466 0  0.4322898819624801 0.740656061455649 0  0.4086647429962413 0.7327184368030547 0  0.3859473347991467 0.7224679517606571 0  0.3643634333251838 0.7100064803301749 0  0.3441275489297311 0.695457870134069 0  0.3254407949698314 0.6789667118188061 0  0.3084888888534789 0.6606969019845276 0  0.2934403061462555 0.6408300141129275 0  0.2804446064830403 0.6195634943350726 0  0.269630946912789 0.5971086987849272 0  0.2611067984684691 0.5736887933271766 0  0.2549568779993002 0.5495365356090853 0  0.2512423061461697 0.5248919615242357 0  -0.1 1.05000000000004 0  -0.1 1.000000000000079 0  -0.1 0.9500000000001624 0  -0.1 0.9000000000003032 0  -0.1 0.850000000000444 0  -0.1 0.8000000000005848 0  -0.1 0.7500000000007256 0  -0.1 0.7000000000008665 0  -0.1 0.6500000000010508 0  -0.1 0.6000000000012352 0  -0.1 0.5500000000014196 0  -0.1 0.500000000001539 0  -0.1 0.4500000000014195 0  -0.1 0.4000000000013 0  -0.1 0.3500000000011588 0  -0.1 0.3000000000010178 0  -0.1 0.2500000000008986 0  -0.1 0.2000000000007579 0  -0.1 0.1500000000006174 0  -0.1 0.1000000000005272 0  -0.1 0.05000000000040083 0  -0.1 2.671196597248127e-13 0  -0.1 -0.0499999999998666 0  -0.0500000000000906 -0.1 0  -1.730560139634463e-13 -0.1 0  0.04999999999975802 -0.1 0  0.09999999999961506 -0.1 0  0.1499999999994613 -0.1 0  0.199999999999302 -0.1 0  0.2499999999991446 -0.1 0  0.2999999999990088 -0.1 0  0.3499999999988296 -0.1 0  0.3999999999986936 -0.1 0  0.4499999999985143 -0.1 0  0.4999999999984002 -0.1 0  0.5499999999985247 -0.1 0  0.5999999999986493 -0.1 0  0.6499999999987955 -0.1 0  0.6999999999989417 -0.1 0  0.7499999999990659 -0.1 0  0.7999999999992116 -0.1 0  0.8499999999993573 -0.1 0  0.8999999999994526 -0.1 0  0.949999999999584 -0.1 0  0.9999999999997226 -0.1 0  1.049999999999861 -0.1 0  1.1 -0.0500000000000906 0  1.1 -1.730560139634463e-13 0  1.1 0.04999999999975802 0  1.1 0.09999999999961506 0  1.1 0.1499999999994613 0  1.1 0.199999999999302 0  1.1 0.2499999999991446 0  1.1 0.2999999999990088 0  1.1 0.3499999999988296 0  1.1 0.3999999999986936 0  1.1 0.4499999999985143 0  1.1 0.4999999999984002 0  1.1 0.5499999999985247 0  1.1 0.5999999999986493 0  1.1 0.6499999999987955 0  1.1 0.6999999999989417 0  1.1 0.7499999999990659 0  1.1 0.7999999999992116 0  1.1 0.8499999999993573 0  1.1 0.8999999999994526 0  1.1 0.949999999999584 0  1.1 0.9999999999997226 0  1.1 1.049999999999861 0  1.05000000000004 1.1 0  1.000000000000079 1.1 0  0.9500000000001624 1.1 0  0.9000000000003032 1.1 0  0.850000000000444 1.1 0  0.8000000000005848 1.1 0  0.7500000000007256 1.1 0  0.7000000000008665 1.1 0  0.6500000000010508 1.1 0  0.6000000000012352 1.1 0  0.5500000000014196 1.1 0  0.500000000001539 1.1 0  0.4500000000014195 1.1 0  0.4000000000013 1.1 0  0.3500000000011588 1.1 0  0.3000000000010178 1.1 0  0.2500000000008986 1.1 0  0.2000000000007579 1.1 0  0.1500000000006174 1.1 0  0.1000000000005272 1.1 0  0.05000000000040083 1.1 0  2.671196597248127e-13 1.1 0  -0.0499999999998666 1.1 0  0.8249380588907451 1.047616347440842 0  -0.04930414223247476 0.7750000000002943 0  0.7250000000005856 1.049304142232497 0  -0.04930414223250894 0.6750000000008883 0  -0.05005353055287366 0.4751214045757569 0  -0.05227636741069795 0.925000000000059 0  0.6250000000011962 1.049304142232509 0  0.37499999999883 -0.05069585776749304 0  -0.04761634744088217 0.5750619411107365 0  1.050053530552911 0.3248785954248981 0  1.047723632589258 0.4749999999986992 0  0.2749999999991388 -0.05069585776748813 0  1.052276367410739 0.1749999999994458 0  0.1749999999994412 -0.0506958577674825 0  0.5250619411110197 1.047616347440863 0  1.050695857767453 0.07499999999974039 0  0.07499999999974048 -0.05069585776745328 0  1.056698729810853 -0.02500000000013183 0  -0.02500000000013183 -0.05669872981085301 0  0.4749380588892939 -0.05238365255906055 0  0.974824126021423 -0.04563512511932064 0  1.025000000000059 1.056698729810831 0  -0.05669872981083125 1.025000000000059 0  0.4251214045756406 1.050053530552834 0  1.047723632589384 0.9249999999997078 0  1.047616347441076 0.5749380588895754 0  0.5748493108649708 -0.04995938179980262 0  0.8249999999993424 -0.05069585776744942 0  1.048086077196909 0.7751734351051978 0  1.051812352155594 0.6749999999989968 0  -0.05238335814404139 0.3750626088285485 0  0.3250000000011518 1.050695857767443 0  -0.05176372359543778 0.07508671755334279 0  0.9248785954258407 1.050053530552733 0  0.1250000000005609 1.050695857767434 0  -0.05227636741065858 0.225000000000865 0  0.2250000000008536 1.050695857767427 0  0.724999999999102 -0.05069585776740729 0  0.02540865088090011 1.050499744139456 0  -0.04896610583499801 0.8749999999998818 0  1.051033894164982 0.424999999998705 0  1.047374892871348 0.2249380588901613 0  0.9249790626212273 -0.05078526232326466 0  -0.04542102135115564 0.02517963619369482 0  1.052625107128575 0.8750619411087237 0  -0.04947264143743749 0.2751227133024619 0  1.050181237452982 0.3749797659032036 0  0.2249999999993328 -0.05023195258916177 0  0.3249999999990323 -0.05023195258916353 0  0.7749999999992561 -0.05023195258914277 0  -0.05109506967060531 0.6250073739427677 0  0.4249926260571179 -0.04890493032945368 0  0.1750000000007077 1.050231952589143 0  0.6750000000009053 1.049768047410834 0  1.04889215828797 0.1249999999996028 0  0.1249999999996294 -0.05023195258915596 0  0.5750073739430628 1.051095069670582 0  0.8749965104364534 -0.05024685334845234 0  0.2750000000010351 1.050231952589145 0  0.07506810848050217 1.050199266984482 0  -0.04976804741083062 0.7250000000006358 0  0.375020234097062 1.050124898053379 0  1.050906913760619 0.5249926260571207 0  -0.04882842775454567 0.4250219063587909 0  -0.04971170801124546 0.825000000000143 0  0.7749926260587385 1.051095069670549 0  1.048123057673042 0.0249999999998983 0  0.02499999999989832 -0.04812305767304204 0  -0.04737489287146101 0.175061941109966 0  0.6749790824564315 -0.0492394
[...]
<CellData  Scalars="target_interface">
<DataArray  type="Float64"  Name="target_interface"  format="ascii">0 0 0 0 0 0 0 0 0 0 0 0 0 0 0 0 0 0 0 0 0 0 0 0 0 0 0 0 12 12 0 0 0 0 0 0 0 0 0 0 0 0 0 0 0 0 0 0 0 0 0 0 0 0 0 0 0 0 0 0 0 0 0 0 0 0 0 0 0 0 0 0 0 0 0 0 0 0 0 0 0 0 0 0 0 0 0 0 0 0 0 0 0 0 0 0 0 0 0 0 0 0 0 0 0 0 0 0 0 0 0 0 0 0 0 0 0 0 0 0 0 0 0 0 0 0 0 0 0 0 0 0 0 0 0 0 0 0 0 0 0 0 0 0 0 0 0 0 0 0 0 0 0 0 0 0 0 0 0 0 0 0 0 0 0 0 0 0 0 0 0 0 0 0 0 0 0 0 0 0 0 0 0 0 0 0 0 0 0 0 0 0 0 0 0 0 0 0 0 0 0 0 0 0 0 0 0 0 0 0 0 0 0 0 0 0 0 0 0 0 0 0 0 0 0 0 0 0 0 0 0 0 0 0 0 0 0 0 0 0 0 0 0 0 0 0 0 0 0 0 0 0 0 0 0 0 0 0 0 0 0 0 0 0 0 0 0 0 0 0 0 0 0 0 0 0 0 0 0 0 0 0 0 0 0 0 0 0 0 0 0 0 0 0 0 0 0 0 0 0 0 0 0 0 0 0 0 0 0 0 0 0 0 0 0 0 0 0 0 0 0 0 0 0 0 0 0 0 0 0 0 0 0 0 0 0 0 0 0 0 0 0 0 0 0 0 0 0 0 0 0 0 0 0 0 0 0 0 0 0 0 0 0 0 0 0 0 0 0 0 0 0 0 0 0 0 0 0 0 0 0 0 0 0 0 0 0 0 0 0 0 0 0 0 0 0 0 0 0 0 0 0 0 0 0 0 0 0 0 0 0 0 0 0 0 0 0 0 0 0 0 0 0 0 0 0 0 0 0 0 0 0 0 0 0 12 0 0 0 0 12 0 0 0 0 12 0 0 0 0 12 0 0 0 0 12 0 0 0 0 12 0 0 0 0 12 0 0 0 0 12 0 0 0 0 12 0 0 0 0 12 0 0 0 0 12 0 0 0 0 12 0 0 0 0 12 0 0 0 0 12 0 0 0 0 12 0 0 0 0 12 0 0 0 0 12 0 0 0 0 12 0 0 0 0 12 0 0 0 0 12 0 0 0 0 12 0 0 0 0 12 0 0 0 0 12 0 0 0 0 12 0 0 0 0 12 0 0 0 0 0 12 0 0 0 0 12 0 0 0 0 12 0 0 0 0 12 0 0 0 0 12 0 0 0 0 12 0 0 0 0 12 0 0 0 0 12 0 0 0 0 12 0 0 0 0 12 0 0 0 0 12 0 0 0 0 12 0 0 0 0 12 0 0 0 0 12 0 0 0 0 12 0 0 0 0 12 0 0 0 0 12 0 0 0 0 12 0 0 0 0 12 0 0 0 0 12 0 0 0 0 12 0 0 0 0 12 0 0 0 0 12 0 0 0 0 12 0 0 0 0 12 0 0 0 0 12 0 0 0 0 12 0 0 0 0 12 0 0 0 0 12 0 0 0 0 12 0 0 0 0 12 0 0 0 0 12 0 0 0 0 12 0 0 0 0 12 0 0 0 0 12 0 0 0 0 0 12 0 0 0 0 0 0 0 0 0 0 0 0 0 0 0 0 0 0 0 0 0 0 0 0 0 0 0 0 0 0 0 0 0 0 0 0 0 0 0 0 0 0 0 0 0 0 0 0 0 0 0 0 0 0 0 0 0 0 0 0 0 0 0 0 0 0 0 0 0 0 0 0 0 0 0 0 0 0 0 0 0 0 0 0 0 0 0 0 0 0 0 0 0 0 0 0 0 0 0 0 0 0 0 0 0 0 0 0 0 0 0 0 0 0 0 0 0 0 0 0 0 0 0 0 0 0 0 0 0 0 0 0 0 0 0 0 0 0 0 0 0 0 0 0 0 0 0 0 0 0 0 0 0 0 0 0 0 0 0 0 0 0 0 0 0 0 0 0 0 0 0 0 0 0 0 0 0 0 0 0 0 0 0 0 0 0 0 0 0 0 0 0 0 0 0 0 0 0 0 0 0 0 0 0 0 0 0 0 0 0 0 0 0 0 0 0 0 0 0 0 0 0 0 0 0 0 0 0 0 0 0 0 0 0 0 0 0 0 0 0 0 0 0 0 0 0 0 0 0 0 0 0 0 0 0 0 0 0 0 0 0 0 0 0 0 0 0 0 0 0 0 0 0 0 0 0 0 0 0 0 0 0 0 0 0 0 0 0 0 0 0 0 0 0 0 0 0 0 0 0 0 0 0 0 0 0 0 0 0 0 0 0 0 0 0 0 0 0 0 0 0 0 0 0 0 0 0 0 0 0 0 0 0 0 0 0 0 0 0 0 0 0 0 0 0 0 0 0 0 0 0 0 0 0 0 0 0 0 0 0 0 0 0 0 0 0 0 0 0 0 0 0 0 0 0 0 0 0 0 0 0 0 0 0 0 0 0 0 0 0 0 0 0 0 0 0 0 0 0 0 0 0 0 0 0 0 0 0 0 0 0 0 0 0 0 0 0 0 0 0 0 0 0 0 0 0 0 0 0 0 0 0 0 0 0 0 0 0 0 0 0 0 0 0 0 0 0 0 0 0 0 0 0 0 0 0 0 0 0 0 0 0 0 0 0 0 0 0 0 0 0 0 0 0 0 0 0 0 0 0 0 0 0 0 0 0 0 0 0 0 0 0 0 0 0 0 0 0 0 0 0 0 0 0 0 0 0 0 0 0 0 0 0 0 0 0 0 0 0 0 0 0 0 0 0 0 0 0 0 0 0 0 0 0 0 0 0 0 0 0 0 0 0 0 0 0 0 0 0 0 0 0 0 0 0 0 0 0 0 0 0 0 0 0 0 0 0 0 0 0 0 0 0 0 0 0 0 0 0 0 0 0 0 0 0 0 0 0 0 0 0 0 0 0 0 0 0 0 0 0 0 0 0 0 0 0 0 0 0 0 0 0 0 0 0 0 0 0 0 0 0 0 0 0 0 0 0 0 0 0 0 0 0 0 0 0 0 0 0 0 0 0 0 0 0 0 0 0 0 0 0 0 0 0 0 0 0 0 0 0 0 0 0 0 0 0 0 0 0 0 0 0 0 0 0 0 0 0 0 0 0 0 0 0 0 0 0 0 0 0 0 0 0 0 0 0 0 0 0 0 0 0 0 0 0 0 0 0 0 0 0 0 0 0 0 0 0 0 0 0 0 0 0 0 0 0 0 0 0 0 0 0 0 0 0 0 0 0 0 0 0 0 0 0 0 0 0 0 0 0 0 0 0 0 0 0 0 0 0 0 0 0 0 0 0 0 0 0 0 0 0 0 0 0 0 0 0 0 0 0 0 0 0 0 0 0 0 0 0 0 0 0 0 0 0 0 0 0 0 0 0 0 0 0 0 0 0 0 0 0 0 0 0 0 0 0 0 0 0 0 0 0 0 0 0 0 0 0 0 0 0 0 0 0 0 0 0 0 0 0 0 0 0 0 0 0 0 0 0 0 0 0 0 0 0 0 0 0 0 0 0 0 0 0 0 0 0 0 0 0 0 0 0 0 0 0 0 0 0 0 0 0 0 0 0 0 0 0 0 0 0 0 0 0 0 0 0 0 0 0 0 0 0 0 0 0 0 0 0 0 0 0 0 0 0 0 0 0 0 0 0 0 0 0 0 0 0 0 0 0 0 0 0 0 0 0 0 0 0 0 0 0 0 0 0 0 0 0 0 0 0 0 0 0 0 0 0 0 0 0 0 0 0 0 0 0 0 0 0 0 0 0 0 0 0 0 0 0 0 0 0 0 0 0 0 0 0 0 0 0 0 0 0 0 0 0 0 0 0 0 0 0 0 0 0 0 0 0 0 0 0 0 0 0 0 0 0 0 0 0 0 0 0 0 0 0 0 0 0 0 0 0 0 0 0 0 0 0 0 0 0 0 0 0 0 0 0 0 0 0 0 0 0 0 0 0 0 0 0 0 0 0 0 0 0 0 0 0 0 0 0 0 0 0 0 0 0 0 0 0 0 0 0 0 0 0 0 0 0 0 0 0 0 0 0 0 0 0 0 0 0 0 0 0 0 0 0 0 0 0 0 0 0 0 0 0 0 0 0 0 0 0 0 0 0 0 0 0 0 0 0 0 0 0 0 0 0 0 0 0 0 0 0 0 0 0 0 0 0 0 0 0 0 0 0 0 0 0 0 0 0 0 0 0 0 0 0 0 0 0 0 0 0 0 0 0 0 0 0 0 0 0 0 0 0 0 0 0 0 0 0 0 0 0 0 0 0 0 0 0 0 0 0 0 0 0 0 0 0 0 0 0 0 0 0 0 0 0 0 0 0 0 0 0 0 0 0 0 0 0 0 0 0 0 0 0 0 0 0 0 0 0 0 0 0 0 0 0 0 0 0 0 0 0 0 0 0 0 0 0 0 0 0 0 0 0 0 0 0 0 0 0 0 0 0 0 0 0 0 0 0 0 0 0 0 0 0 0 0 0 0 0 0 0 0 0 0 0 0 0 0 0 0 0 0 0 0 0 0 0 0 0 0 0 0 0 0 0 0 0 0 0 0 0 0 0 0 0 0 0 0 0 0 0 0 0 0 0 0 0 0 0 0 0 0 0 0 0 0 0 0 0 0 0 0 0 0 0 0 0 0 0 0 0 0 0 0 0 0 0 0 0 0 0 0 0 0 0 0 0 0 0 0 0 0 0 0 0 0 0 0 0 0 0 0 0 0 0 0 0 0 0 0 0 0 0 0 0 0 0 0 0 0 0 0 0 0 0 0 0 0 0 0 0 0 0 0 0 0 0 0 0 0 0 0 0 0 0 0 0 0 0 0 0 0 0 0 0 0 0 0 0 0 0 0 0 0 0 0 0 0 0 0 0 0 0 0 0 0 0 0 0 0 0 0 0 0 0 0 0 0 0 0 0 0 0 0 0 0 0 0 0 0 0 0 0 0 0 0 0 0 0 0 0 0 0 0 0 0 0 0 0 0 0 0 0 0 0 0 0 0 0 0 0 0 0 0 0 0 0 0 0 0 0 0 0 0 0 0 0 0 0 0 0 0 0 0 0 0 0 0 0 0 0 0 0 0 0 0 0 0 0 0 0 0 0 0 0 0 0 0 0 0 0 0 0 0 0 0 0 0 0 0 0 0 0 0 0 0 0 0 0 0 0 0 0 0 0 0 0 0 0 0 0 0 0 0 0 0 0 0 0 0 0 0 0 0 0 0 0 0 0 0 0 0 0 0 0 0 0 0 0 0 0 0 0 0 0 0 0 0 0 0 0 0 0 0 0 0 0 0 0 0 0 0 0 0 0 0 0 0 0 0 0 0 0 0 0 0 0 0 0 0 0 0 0 0 0 0 0 0 0 0 0 0 0 0 0 0 0 0 0 0 0 0 0 0 0 0 0 0 0 0 0 0 0 0 0 0 0 0 0 0 0 0 0 0 0 0 0 0 0 0 0 0 0 0 0 0 0 0 0 0 0 0 0 0 0 0 0 0 0 0 0 0 0 0 0 0 0 0 0 0 0 0 0 0 0 0 0 0 0 0 0 0 0 0 0 0 0 0 0 0 0 0 0 0 0 0 0 0 0 0 0 0 0 0 0 0 0 0 0 0 0 0 0 0 0 0 0 0 0 0 0 0 0 0 0 0 0 0 0 0 0 0 0 0 0 0 0 0 0 0 0 0 0 0 0 0 0 0 0 0 0 0 0 0 0 0 0 0 0 0 0 0 0 0 0 0 0 0 0 0 0 0 0 0 0 0 0 0 0 0 0 0 0 0 0 0 0 0 0 0 0 0 0 0 0 0 0 0 0 0 0 0 0 0 0 0 0 0 0 0 0 0 0 0 0 0 0 0 0 0 0 0 0 0 0 0 0 0 0 0 0 0 0 0 0 0 0 0 0 0 0 0 0 0 0 0 0 0 0 0 0 0 0 0 0 0 0 0 0 0 0 0 0 0 0 0 0 0 0 0 0 0 0 0 0 0 0 0 0 0 0 0 0 0 0 0 0 0 0 0 0 0 0 0 0 0 0 0 0 0 0 0 0 0 0 0 0 0 0 0 0 0 0 0 0 0 0 0 0 0 0 0 0 0 0 0 0 0 0 0 0 0 0 0 0 0 0 0 0 0 0 0 0 0 0 0 0 0 0 0 0 0 0 0 0 0 0 0 0 0 0 0 0 0 0 0 0 0 0 0 0 0 0 0 0 0 0 0 0 0 0 0 0 0 0 0 0 0 0 0 0 0 0 0 0 0 0 0 0 0 0 0 0 0 0 0 0 0 0 0 0 0 0 0 0 0 0 0 0 0 0 0 0 0 0 0 0 0 0 0 0 0 0 0 0 0 0 0 0 0 0 0 0 0 0 0 0 0 0 0 0 0 0 0 0 0 0 0 0 0 0 0 0 0 0 0 0 0 0 0 0 0 0 0 0 0 0 0 0 0 0 0 0 0 0 0 0 0 0 0 0 0 0 0 0 0 0 0 0 0 0 0 0 0 0 0 0 0 0 0 0 0 0 0 0 0 0 0 0 0 0 0 0 0 0 0 0 0 0 0 0 0 0 0 0 0 0 0 0 0 0 0 0 0 0 0 0 0 0 0 0 0 0 0 0 0 0 0 0 0 0 0 0 0 0 0 0 0 0 0 0 0 0 0 0 0 0 0 0 0 0 0 0 0 0 0 0 0 0 0 0 0 0 0 0 0 0 0 0 0 0 0 0 0 0 0 0 0 0 0 0 0 0 0 0 0 0 0 0 0 0 0 0 0 0 0 0 0 0 0 0 0 0 0 0 0 0 0 0 0 0 0 0 0 0 0 0 0 0 0 0 0 0 0 0 0 0 0 0 0 0 0 0 0 0 0 0 0 0 0 0 0 0 0 0 0 0 0 0 0 0 0 0 0 0 0 0 0 0 0 0 0 0 0 0 0 0 0 0 0 0 0 0 0 0 0 0 0 0 0 0 0 0 0 0 0 0 0 0 0 0 0 0 0 0 0 0 0 0 0 0 0 0 0 0 0 0 0 0 0 0 0 0 0 0 0 0 0 0 0 0 0 0 0 0 0 0 0 0 0 0 0 0 0 0 0 0 0 0 0 0 0 0 0 0 0 0 0 0 0 0 0 0 0 0 0 0 0 0 0 0 0 0 0 0 0 0 0 0 0 0 0 0 0 0 0 0 0 0 0 0 0 0 0 0 0 0 0 0 0 0 0 0 0 0 0 0 0 0 0 0 0 0 0 0 0 0 0 0 0 0 0 0 0 0 0 0 0 0 0 0 0 0 0 0 0 0 0 0 0 0 0 0 0 0 0 0 0 0 0 0 0 0 0 0 0 0 0 0 0 0 0 0 0 0 0 0 0 0 0 0 0 0 0 0 0 0 0 0 0 0 0 0 0 0 0 0 0 0 0 0 0 0 0 0 0 0 0 0 0 0 0 0 0 0 0 0 0 0 0 0 0 0 0 0 0 0 0 0 0 0 0 0 0 0 0 0 0 0 0 0 0 0 0 0 0 0 0 0 0 0 0 0 0 0 0 0 0 0 0 0 0 0 0 0 0 0 0 0 0 0 0 0 0 0 0 0 0 0 0 0 0 0 0 0 0 0 0 0 0 0 0 0 0 0 0 0 0 0 0 0 0 0 0 0 0 0 0 0 0 0 0 0 0 0 0 0 0 0 0 0 0 0 0 0 0 0 0 0 0 0 0 0 0 0 0 0 0 0 0 0 0 0 0 0 0 0 0 0 0 0 0 0 0 0 0 0 0 0 0 0 0 0 0 0 0 0 0 0 0 0 0 0 0 0 0 0 0 0 0 0 0 0 0 0 0 0 0 0 0 0 0 0 0 0 0 0 0 0 0 0 0 0 0 0 0 0 0 0 0 0 0 0 0 0 0 0 0 0 0 0 0 0 0 0 0 0 0 0 0 0 0 0 0 0 0 0 0 0 0 0 0 0 0 0 0 0 0 0 0 0 0 0 0 0 0 0 0 0 0 0 0 0 0 0 0 0 0 0 0 0 0 0 0 0 0 0 0 0 0 0 0 0 0 0 0 0 0 0 0 0 0 0 0 0 0 0 0 0 0 0 0 0 0 0 0 0 0 0 0 0 0 0 0 0 0 0 0 0 0 0 0 0 0 0 0 0 0 0 0 0 0 </DataArray>
</CellData>
</Piece>
</UnstructuredGrid>
</VTKFile>