<?xml version="1.0"?>
<VTKFile type="UnstructuredGrid"  version="0.1"  >
<UnstructuredGrid>
<Piece  NumberOfPoints="1286" NumberOfCells="2474">
<Points>
<DataArray  type="Float64"  NumberOfComponents="3"  format="ascii">0 0 0  0 1 0  1 1 0  1 0 0  1.1 -0.1 0  -0.1 -0.1 0  1.1 1.1 0  -0.1 1.1 0  0.2519761244722567 0.4997956223789899 0  0.4995358741789375 0.4999492135118979 0  0 0.9499999999997918 0  0 0.8999999999995836 0  0 0.8499999999996529 0  0 0.7999999999999998 0  0 0.7500000000003466 0  0 0.7000000000006934 0  0 0.6500000000010401 0  0 0.6000000000013869 0  0 0.5500000000017335 0  0 0.5000000000020587 0  0 0.4500000000018723 0  0 0.4000000000016644 0  0 0.3500000000014564 0  0 0.3000000000012483 0  0 0.2500000000010403 0  0 0.2000000000008322 0  0 0.1500000000006241 0  0 0.100000000000416 0  0 0.05000000000020799 0  0.04999999999989965 0 0  0.09999999999981467 0 0  0.1499999999997036 0 0  0.1999999999995579 0 0  0.2499999999994121 0 0  0.2999999999992664 0 0  0.3499999999991206 0 0  0.3999999999989749 0 0  0.4499999999988292 0 0  0.4999999999986943 0 0  0.5499999999988151 0 0  0.5999999999989468 0 0  0.6499999999990784 0 0  0.69999999999921 0 0  0.7499999999993417 0 0  0.7999999999994734 0 0  0.8499999999996051 0 0  0.8999999999997368 0 0  0.9499999999998684 0 0  1 0.04999999999989965 0  1 0.09999999999981467 0  1 0.1499999999997036 0  1 0.1999999999995579 0  1 0.2499999999994121 0  1 0.2999999999992664 0  1 0.3499999999991206 0  1 0.3999999999989749 0  1 0.4499999999988292 0  1 0.4999999999986943 0  1 0.5499999999988151 0  1 0.5999999999989468 0  1 0.6499999999990784 0  1 0.69999999999921 0  1 0.7499999999993417 0  1 0.7999999999994734 0  1 0.8499999999996051 0  1 0.8999999999997368 0  1 0.9499999999998684 0  0.9499999999997918 1 0  0.8999999999995836 1 0  0.8499999999996529 1 0  0.7999999999999998 1 0  0.7500000000003466 1 0  0.7000000000006934 1 0  0.6500000000010401 1 0  0.6000000000013869 1 0  0.5500000000017335 1 0  0.5000000000020587 1 0  0.4500000000018723 1 0  0.4000000000016644 1 0  0.3500000000014564 1 0  0.3000000000012483 1 0  0.2500000000010403 1 0  0.2000000000008322 1 0  0.1500000000006241 1 0  0.100000000000416 1 0  0.05000000000020799 1 0  -0.1 1.05000000000004 0  -0.1 1.000000000000079 0  -0.1 0.9500000000001624 0  -0.1 0.9000000000003032 0  -0.1 0.850000000000444 0  -0.1 0.8000000000005848 0  -0.1 0.7500000000007256 0  -0.1 0.7000000000008665 0  -0.1 0.6500000000010508 0  -0.1 0.6000000000012352 0  -0.1 0.5500000000014196 0  -0.1 0.500000000001539 0  -0.1 0.4500000000014195 0  -0.1 0.4000000000013 0  -0.1 0.3500000000011588 0  -0.1 0.3000000000010178 0  -0.1 0.2500000000008986 0  -0.1 0.2000000000007579 0  -0.1 0.1500000000006174 0  -0.1 0.1000000000005272 0  -0.1 0.05000000000040083 0  -0.1 2.671196597248127e-13 0  -0.1 -0.0499999999998666 0  -0.0500000000000906 -0.1 0  -1.730560139634463e-13 -0.1 0  0.04999999999975802 -0.1 0  0.09999999999961506 -0.1 0  0.1499999999994613 -0.1 0  0.199999999999302 -0.1 0  0.2499999999991446 -0.1 0  0.2999999999990088 -0.1 0  0.3499999999988296 -0.1 0  0.3999999999986936 -0.1 0  0.4499999999985143 -0.1 0  0.4999999999984002 -0.1 0  0.5499999999985247 -0.1 0  0.5999999999986493 -0.1 0  0.6499999999987955 -0.1 0  0.6999999999989417 -0.1 0  0.7499999999990659 -0.1 0  0.7999999999992116 -0.1 0  0.8499999999993573 -0.1 0  0.8999999999994526 -0.1 0  0.949999999999584 -0.1 0  0.9999999999997226 -0.1 0  1.049999999999861 -0.1 0  1.1 -0.0500000000000906 0  1.1 -1.730560139634463e-13 0  1.1 0.04999999999975802 0  1.1 0.09999999999961506 0  1.1 0.1499999999994613 0  1.1 0.199999999999302 0  1.1 0.2499999999991446 0  1.1 0.2999999999990088 0  1.1 0.3499999999988296 0  1.1 0.3999999999986936 0  1.1 0.4499999999985143 0  1.1 0.4999999999984002 0  1.1 0.5499999999985247 0  1.1 0.5999999999986493 0  1.1 0.6499999999987955 0  1.1 0.6999999999989417 0  1.1 0.7499999999990659 0  1.1 0.7999999999992116 0  1.1 0.8499999999993573 0  1.1 0.8999999999994526 0  1.1 0.949999999999584 0  1.1 0.9999999999997226 0  1.1 1.049999999999861 0  1.05000000000004 1.1 0  1.000000000000079 1.1 0  0.9500000000001624 1.1 0  0.9000000000003032 1.1 0  0.850000000000444 1.1 0  0.8000000000005848 1.1 0  0.7500000000007256 1.1 0  0.7000000000008665 1.1 0  0.6500000000010508 1.1 0  0.6000000000012352 1.1 0  0.5500000000014196 1.1 0  0.500000000001539 1.1 0  0.4500000000014195 1.1 0  0.4000000000013 1.1 0  0.3500000000011588 1.1 0  0.3000000000010178 1.1 0  0.2500000000008986 1.1 0  0.2000000000007579 1.1 0  0.1500000000006174 1.1 0  0.1000000000005272 1.1 0  0.05000000000040083 1.1 0  2.671196597248127e-13 1.1 0  -0.0499999999998666 1.1 0  0.2538137321166236 0.4695924338872421 0  0.2592729151531914 0.4408525056912349 0  0.2673019136988352 0.4136370167601742 0  0.2782437160667954 0.3876356431485893 0  0.2917893848841146 0.3636418130608856 0  0.3075239010519975 0.341668031261558 0  0.3255700599813284 0.3210092919481781 0  0.3466305378156809 0.3024163340266913 0  0.3694297003159939 0.2872147947800057 0  0.393600911321683 0.2746955262301126 0  0.4195376636860683 0.2648849694011089 0  0.4472120061077715 0.2577889904561071 0  0.4766598306189718 0.2536120976043877 0  0.5074051397561258 0.2524576936485603 0  0.5377137232833268 0.2552106482820208 0  0.5662361174722704 0.2611625299808288 0  0.593019101631271 0.2694870739712136 0  0.6182558398165867 0.2809678136614588 0  0.6417929910258403 0.295305140096511 0  0.6636795742091121 0.3125288064728419 0  0.6830424442371763 0.3315324222349219 0  0.7005750531444607 0.3532528462391827 0  0.7151163929660644 0.37640157878367 0  0.7273060002091625 0.4006759089257041 0  0.7373651156478713 0.4269986047760745 0  0.7443196923300958 0.455043897428844 0  0.7484475044356629 0.4845948168201853 0  0.748306578163357 0.5153683171458949 0  0.7439718011608947 0.544916397924786 0  0.7369960180715815 0.5729173628688772 0  0.7269905830743451 0.5992900544728775 0  0.7148981588049806 0.6238466480200628 0  0.7005420666531277 0.6472506079235868 0  0.6831863946779057 0.6691297253394624 0  0.6638135269942697 0.6882865872386904 0  0.6420882453521027 0.7053323396081922 0  0.6185235893837242 0.7195535879846877 0  0.5931825774715638 0.7309616185130907 0  0.566279338472838 0.7392049768821271 0  0.5377456991113715 0.7450882585934098 0  0.5074258187190626 0.7478275988125949 0  0.4767631483033016 0.7466308390645251 0  0.4474982826485324 0.7422623748018441 0  0.4198221385788157 0.7347913185126133 0  0.3940054754145098 0.7247565797557991 0  0.3699970185424008 0.7121872409671295 0  0.3473363612741508 0.6970564494032202 0  0.3261157033099129 0.6784733889795387 0  0.3079375201370742 0.6580611285176426 0  0.2919610148560999 0.6362400971887857 0  0.2782848216881155 0.6122355950550302 0  0.2671950694955359 0.5862069845300046 0  0.2591119750383544 0.5588572185228075 0  0.2537177186190259 0.5300196127734789 0  0.5013481341624781 0.6150106306263746 0  0.5070186855124051 0.3791686459381004 0  0.6292854376686053 0.4985586841524527 0  0.3648693230070716 0.4998633127552199 0  0.4102634630645979 0.4225488584431327 0  0.4073776730731579 0.5772894482191879 0  0.5789594338709186 0.405841810915261 0  0.5785727137147237 0.5942956145524263 0  0.4380930253143397 0.6439995743232033 0  0.4859851320925916 0.682346924459682 0  0.5455572538803183 0.6805941681124152 0  0.4330874040080384 0.3521244004290684 0  0.4863627357711934 0.3160240404467901 0  0.5474500920257298 0.319221564836739 0  0.6505539471091768 0.5881045904834699 0  0.6510391803914632 0.4122644304791754 0  0.3457342424057258 0.5761313961612884 0  0.344947957216356 0.423154453733582 0  0.3823737875241491 0.6390901554317902 0  0.3832425235825397 0.3599109263171095 0  0.592186889412236 0.6516037412788579 0  0.5931235705747393 0.3479073952202572 0  0.6894823526712178 0.5000721353258012 0  0.6899926482175112 0.555047419355761 0  0.6899603968929415 0.4457740377872535 0  0.3069015246106007 0.4538068564958873 0  0.2975459623826608 0.5059630181650553 0  0.6356453897316416 0.3673932932528321 0  0.6362498604693477 0.6336232056479753 0  0.3047994509596862 0.5564733803043486 0  0.425112044496043 0.5132770501495016 0  0.4409772632834613 0.692776733096896 0  0.4411680977568607 0.3074304527256166 0  0.3465846202679106 0.3791386956062598 0  0.3465231185191183 0.6214152671655144 0  0.5630849063258576 0.5249438378423168 0  0.5211226138469611 0.4399870950178899 0  0.5200536679009254 0.2893627492617343 0  0.5195593798286212 0.7105360894658064 0  0.4692538777782688 0.572901317355363 0  0.4680481326172828 0.4451668105918478 0  0.3969426132830678 0.6703279477296449 0  0.3975642947316775 0.3300035463653181 0  0.6032697790534223 0.4571385514648652 0  0.6020481661479734 0.5414457844127688 0  0.5818399047319643 0.3151468317227049 0  0.5811804500840497 0.6847901853733452 0  0.3956988845631387 0.5311235834012082 0  0.3901331084219415 0.4650787514327834 0  0.4475793883729452 0.4177655477015947 0  0.7096079678668054 0.5305664315553262 0  0.7108299359544189 0.46833670205039 0  0.5432919171610512 0.6100204591263504 0  0.5447343464058236 0.3894275883136166 0  0.6928898574838526 0.589628756259342 0  0.693005447405377 0.4104204965510032 0  0.4293562157645037 0.6091513537791675 0  0.3039847380274733 0.4174142675912184 0  0.4725180655994103 0.7195883823588723 0  0.4725212442122879 0.2805734923849869 0  0.4609585263526298 0.6677634597693208 0  0.4586549497022966 0.3325149770082494 0  0.6664064460241025 0.3754499466078551 0  0.6661876899520571 0.6248098076850548 0  0.6291971639475696 0.3345280949806366 0  0.629427695002008 0.6658908801554339 0  0.283191687543925 0.4710648789912433 0  0.3081580473607368 0.5869834337737501 0  0.7218303266462428 0.5000185501289536 0  0.5168943368887378 0.5648024053869499 0  0.2840587890168844 0.5361346428438566 0  0.3196070012117849 0.3905985389860437 0  0.4624021916757189 0.6056049605160596 0  0.5672417496503226 0.2902207252632374 0  0.5661348592894491 0.7100263661840271 0  0.3542010067119584 0.5368757418430333 0  0.3236166769039218 0.5254633194827382 0  0.56143308192
[...]
<PointData  Scalars="state"> 
<DataArray  type="Float64"  Name="state"  format="ascii">0.0000000000000000e+00  0.0000000000000000e+00  0.0000000000000000e+00  0.0000000000000000e+00  0.0000000000000000e+00  0.0000000000000000e+00  0.0000000000000000e+00  0.0000000000000000e+00  -1.0741836100617184e-02  1.3686171772651567e+00  0.0000000000000000e+00  0.0000000000000000e+00  0.0000000000000000e+00  0.0000000000000000e+00  0.0000000000000000e+00  0.0000000000000000e+00  0.0000000000000000e+00  0.0000000000000000e+00  0.0000000000000000e+00  0.0000000000000000e+00  0.0000000000000000e+00  0.0000000000000000e+00  0.0000000000000000e+00  0.0000000000000000e+00  0.0000000000000000e+00  0.0000000000000000e+00  0.0000000000000000e+00  0.0000000000000000e+00  0.0000000000000000e+00  0.0000000000000000e+00  0.0000000000000000e+00  0.0000000000000000e+00  0.0000000000000000e+00  0.0000000000000000e+00  0.0000000000000000e+00  0.0000000000000000e+00  0.0000000000000000e+00  0.0000000000000000e+00  0.0000000000000000e+00  0.0000000000000000e+00  0.0000000000000000e+00  0.0000000000000000e+00  0.0000000000000000e+00  0.0000000000000000e+00  0.0000000000000000e+00  0.0000000000000000e+00  0.0000000000000000e+00  0.0000000000000000e+00  0.0000000000000000e+00  0.0000000000000000e+00  0.0000000000000000e+00  0.0000000000000000e+00  0.0000000000000000e+00  0.0000000000000000e+00  0.0000000000000000e+00  0.0000000000000000e+00  0.0000000000000000e+00  0.0000000000000000e+00  0.0000000000000000e+00  0.0000000000000000e+00  0.0000000000000000e+00  0.0000000000000000e+00  0.0000000000000000e+00  0.0000000000000000e+00  0.0000000000000000e+00  0.0000000000000000e+00  0.0000000000000000e+00  0.0000000000000000e+00  0.0000000000000000e+00  0.0000000000000000e+00  0.0000000000000000e+00  0.0000000000000000e+00  0.0000000000000000e+00  0.0000000000000000e+00  0.0000000000000000e+00  0.0000000000000000e+00  0.0000000000000000e+00  0.0000000000000000e+00  0.0000000000000000e+00  0.0000000000000000e+00  0.0000000000000000e+00  0.0000000000000000e+00  0.0000000000000000e+00  0.0000000000000000e+00  0.0000000000000000e+00  0.0000000000000000e+00  0.0000000000000000e+00  0.0000000000000000e+00  0.0000000000000000e+00  0.0000000000000000e+00  0.0000000000000000e+00  0.0000000000000000e+00  0.0000000000000000e+00  0.0000000000000000e+00  0.0000000000000000e+00  0.0000000000000000e+00  0.0000000000000000e+00  0.0000000000000000e+00  0.0000000000000000e+00  0.0000000000000000e+00  0.0000000000000000e+00  0.0000000000000000e+00  0.0000000000000000e+00  0.0000000000000000e+00  0.0000000000000000e+00  0.0000000000000000e+00  0.0000000000000000e+00  0.0000000000000000e+00  0.0000000000000000e+00  0.0000000000000000e+00  0.0000000000000000e+00  0.0000000000000000e+00  0.0000000000000000e+00  0.0000000000000000e+00  0.0000000000000000e+00  0.0000000000000000e+00  0.0000000000000000e+00  0.0000000000000000e+00  0.0000000000000000e+00  0.0000000000000000e+00  0.0000000000000000e+00  0.0000000000000000e+00  0.0000000000000000e+00  0.0000000000000000e+00  0.0000000000000000e+00  0.0000000000000000e+00  0.0000000000000000e+00  0.0000000000000000e+00  0.0000000000000000e+00  0.0000000000000000e+00  0.0000000000000000e+00  0.0000000000000000e+00  0.0000000000000000e+00  0.0000000000000000e+00  0.0000000000000000e+00  0.0000000000000000e+00  0.0000000000000000e+00  0.0000000000000000e+00  0.0000000000000000e+00  0.0000000000000000e+00  0.0000000000000000e+00  0.0000000000000000e+00  0.0000000000000000e+00  0.0000000000000000e+00  0.0000000000000000e+00  0.0000000000000000e+00  0.0000000000000000e+00  0.0000000000000000e+00  0.0000000000000000e+00  0.0000000000000000e+00  0.0000000000000000e+00  0.0000000000000000e+00  0.0000000000000000e+00  0.0000000000000000e+00  0.0000000000000000e+00  0.0000000000000000e+00  0.0000000000000000e+00  0.0000000000000000e+00  0.0000000000000000e+00  0.0000000000000000e+00  0.0000000000000000e+00  0.0000000000000000e+00  0.0000000000000000e+00  0.0000000000000000e+00  0.0000000000000000e+00  0.0000000000000000e+00  0.0000000000000000e+00  0.0000000000000000e+00  0.0000000000000000e+00  0.0000000000000000e+00  0.0000000000000000e+00  0.0000000000000000e+00  0.0000000000000000e+00  0.0000000000000000e+00  0.0000000000000000e+00  0.0000000000000000e+00  0.0000000000000000e+00  0.0000000000000000e+00  -8.5434389535979406e-03  -9.1598046881552712e-03  -5.5184638023776256e-03  -5.9422457918754607e-03  -6.3588651491582795e-03  -8.2887607466423756e-03  -1.6054315950546827e-03  -5.6148054797753640e-03  -9.1478079494714711e-03  -8.7844647261644503e-03  -9.0419336838172652e-03  -8.1076239810402070e-03  -9.6823791448951459e-03  -8.9978135969992646e-03  -9.1022205114386703e-03  -9.1104562880869374e-03  -6.8165641881597914e-03  -8.2447425961080251e-03  -3.9230212978275834e-03  -6.4989754545000424e-03  -7.8293115001826369e-03  -3.2456812197791318e-03  -7.7378424752106122e-03  -8.4714231680466049e-03  -7.7016136261300753e-03  -1.0014161128155180e-02  -8.2832697616741294e-03  -8.1777145784308995e-03  -9.9162715632962750e-03  -7.5212519750012434e-03  -8.3281478080833304e-03  -7.5932404592530438e-03  -3.3292810475123768e-03  -8.0624601107050862e-03  -6.8363268986460094e-03  -4.0763057796669357e-03  -8.3745405648880701e-03  -6.8558126083205148e-03  -9.1384089767340432e-03  -9.1321318602525722e-03  -9.1356521392763328e-03  -9.8080605528119078e-03  -8.1714535095656175e-03  -8.8927869726556294e-03  -8.6621823164351828e-03  -9.1659811824079084e-03  -5.6006733528435179e-03  -1.8062075203513083e-03  -8.4900951619915604e-03  -6.8771529886733672e-03  -3.7090953908226519e-03  -8.4707061412184932e-03  -9.1558785302722160e-03  -8.2279327294191209e-03  9.2426083278370019e-01  8.8590939360317222e-01  8.4927102563364076e-01  8.1655931336502496e-01  9.0790787024165387e-01  8.9177954303088736e-01  8.6795530828240830e-01  8.6896339096274877e-01  5.2898326028339804e-01  1.8559197281914880e-01  1.5130092053975891e-01  4.5319918231971690e-01  1.6920516440832217e-01  1.4518648042364582e-01  2.3933816266392957e-01  2.3485327346370266e-01  2.7163433811750809e-01  2.6122773120779508e-01  1.7808596438092913e-01  1.7882761538346784e-01  2.1457951046855026e-01  2.0294561379729278e-01  1.3914227966704507e-01  1.0915354979472051e-01  1.0966102779032094e-01  1.0882318776553936e-01  8.4280081134694013e-02  1.2267719379677682e-01  1.1766756469780240e-01  8.7698116074818755e-02  1.1646609726757493e+00  9.2602709279169679e-02  9.2317469629791038e-02  1.1487025145266982e-01  1.1095740304356805e-01  1.2177846196110549e+00  1.2310741145982251e+00  6.4783070995698383e-02  6.6100860720309337e-02  1.1458268310669417e+00  1.2297078850740710e+00  8.4146834303261739e-02  9.3597952805488549e-02  9.2797484861227597e-01  9.3855288400513159e-01  8.0566621078466460e-02  8.2356912779032912e-02  9.4626983667868858e-01  9.0424824195449949e-01  1.0192863297848522e+00  6.8127746984431678e-02  6.3873367327970484e-02  9.1022749696506144e-01  9.0645554506763792e-01  6.6289872129929969e-02  6.6141617651524182e-02  8.4752851780823224e-01  6.5349150143296064e-02  5.8075335751715723e-02  5.8098570171096819e-02  2.8040491912805920e-01  2.9323091454966771e-01  7.7143142685029878e-02  7.7744044359710454e-02  7.6148535218468455e-02  7.5333599803631704e-02  6.1860695508693261e-02  6.5262367634606619e-02  5.5139238209075743e-02  1.2179715648017011e+00  5.6180460218075032e-02  6.4090236030403272e-02  9.3371841501037078e-01  5.8414763596532894e-02  5.9175589332852094e-02  6.5208688830443684e-01  2.1601386024652772e-01  4.3492492689971146e-01  4.4843247499275152e-01  6.2517381145215778e-01  6.4694190936572127e-01  6.0895236399740260e-01  6.2607860618208655e-01  6.2432119069623360e-01  6.4602301847292476e-01  6.3837645386480601e-01  7.1833953321083943e-01  4.4407029511716362e-01  6.8416334666272449e-02  6.1356460876993320e-02  6.1982523736811741e-02  6.8959379644140895e-01  5.3795753173684546e-01  6.1200662425543222e-02  6.1934667224580124e-02  1.2020056245521307e+00  5.6531774057120587e-01  5.5072734220703523e-01  8.1959056138154818e-01  5.6338545564319151e-02  5.5876822098283256e-02  2.9173247436451855e-01  6.6872367286497300e-02  6.3099924787460362e-02  5.4162704722338265e-02  5.3519427223666836e-02  3.8044915652907779e-01  1.8341274763949900e-01  1.8220327521929286e-01  4.7565518467041344e-02  5.2549091691491773e-02  5.0771549251397048e-02  5.0352746782805838e-02  5.3087558735007701e-02  5.3342271399442059e-02  5.6837724692621723e-02  5.7727700716057227e-02  3.7773685739543400e-01  2.2259486880573637e-01  2.1694720064746809e-01  9.9565483722097547e-01  3.3946431874930616e-01  3.3302209925117071e-01  1.9725756405957745e-01  1.1264536971144821e+00  5.6327870235733346e-01  5.7516416471596665e-01  8.6946898905087755e-01  5.3838843928408298e-01  5.4499022923894280e-01  4.9950194357986255e-02  4.9947171901878903e-02  4.7372869046960135e-02  4.3626816257353054e-02  4.3823301203727710e-02  2.0621099043722593e-01  1.0812606621857286e+00  1.5458794026740311e-01  1.8127246070330841e-01  9.7469915461239537e-02  9.9137555248280024e-02  5.6760894191411886e-02  6.5861675791092533e-01  4.7332453770042963e-02  4.6917586416618869e-02  1.4083469161110701e-01  1.4411536555846804e-01  1.0661789226491878e+00  9.9324529638873804e-01  4.3988790192812162e-02  4.4275738697749235e-02  6.5554712505808410e-01  1.0727078144940689e+00  1.1036458241726503e+00  9.1382957232639395e-02  9.0989820814433492e-02  4.2334422172871239e-01  4.3380833862630142e-02  1.1785138821749101e-01  7.3023778519462201e-01  7.4054693076895395e-01  5.6565517985730063e-02  1.2758797701645976e+00  4.6281235268036458e-02  4.6302190836590332e-02  2.0703218049317845e-01  2.0770679526686486e-01  9.0725252147946342e-02  9.1611977156618285e-02  1.0482845197721531e+00  2.2296468215125867e-01  2.2352944225938118e-01  7.9832754228872493e-01  4.6269902958747985e-02  4.6441681155260026e-02  4.8710591564193016e-02  4.9660582240750928e-02  4.5803909168394732e-02  4.6032098809186107e-02  7.8405852108053253e-01  8.6144211053896469e-01  1.8818272381150059e-01  1.9612786279441688e-01  4.9287057465005397e-02  1.0514313531557564e+00  7.9220040520761315e-01  8.7444271681572616e-01  2.1139920557807673e-01  7.7586878919811886e-01  7.8121281399785303e-01  1.2731039662117845e+00  2.8721423805455881e-01  2.6378102042799473e-01  5.0549087217399064e-02  5.1128594121197919e-02  5.2981440932508589e-02  -2.7083705268657887e-02  -2.7076245805890690e-02  -2.7199735642072370e-02  -2.7188781116807170e-02  -2.4504948764928838e-02  -2.4466094741015389e-02  -2.5057320630632238e-02  -2.5074866101133849e-02  -2.5222311197607847e-02  -2.5233959696924248e-02  -2.5626813774735132e-02  -2.5638414892019800e-02  -2.2545108606661163e-02  -2.2547632997219881e-02  -2.2318880716280833e-02  -2.2553774290500164e-02  -2.6556652890867109e-02  -2.6567470785229752e-02  -2.6338415176918491e-02  -2.6324219138670276e-02  -2.5536087397357701e-02  -2.5534073525136664e-02  -2.5517524308189644e-02  -2.5509092022120972e-02  -2.3392631504501386e-02  -2.3401660636158970e-02  -2.3136403727769310e-02  -2.3667195163363727e-02  -2.3133107283098583e-02  -2.3658118671501027e-02  -2.3819268871094579e-02  -2.3806750418319009e-02  -2.2226908530405386e-02  -1.9175191134786371e-02  -2.2216945523332865e-02  -1.9170184411586581e-02  -2.3923857380462724e-02  -2.3926708037881918e-02  -1.8602399741689441e-02  -1.8604851370317269e-02  -2.3645446460211869e-02  -2.3598579357841678e-02  -2.1628684550802493e-02  -2.1619461214488316e-02  -2.2778431375674882e-02  -2.2036169767304273e-02  -2.2019146330752810e-02  -2.2766202901851416e-02  -2.2778080315186765e-02  -2.1801516260722048e-02  -2.1802621474879651e-02  -2.1619151811186121e-02  -2.1633952049299025e-02  -2.2618755001519532e-02  -1.8341666874233314e-02  -1.9711195645172229e-02  -1.8124191373769968e-02  -1.8128779286688153e-02  -1.7834760016654762e-02  -1.7409503952833132e-02  -2.6717289392630635e-02  -2.6723439897386399e-02  -2.7263007095257835e-02  -2.7264958198788398e-02  -2.3291304837021763e-02  -2.2990705413376826e-02  -2.3334656638080792e-02  -2.3040625115122372e-02  -2.6914327115672924e-02  -2.6899198741472830e-02  -2.7556864828265373e-02  -2.7569208661732209e-02  -2.3825360214736829e-02  -2.3806833396194771e-02  -1.7750005060913811e-02  -1.7810340817523432e-02  -1.7212861534153422e-02  -1.7188987633576118e-02  -2.2894227711458940e-02  -2.2892466619936894e-02  -1.7369271931462846e-02  -1.7350847238679197e-02  -2.2641840232154920e-02  -2.2672273951503449e-02  -2.1329995213112650e-02  -2.3281566797071485e-02  -2.1308501640150353e-02  -2.3279513579503662e-02  -2.1630127679253874e-02  -2.1640016502027178e-02  -2.1322658063544098e-02  -2.1307755884673478e-02  -2.0247953126801228e-02  -2.0317039101103513e-02  -2.1352268865141025e-02  -2.1298850124864085e-02  -2.3345684811176173e-02  -2.3350866214981177e-02  -2.3686840173309173e-02  -2.3697185514097396e-02  -2.0637091281147386e-02  -2.0671701952180745e-02  -2.3798357156529820e-02  -2.3790962833449184e-02  -2.0342394208598989e-02  -2.0329969779403840e-02  -2.5772707948106877e-02  -2.5777452445229405e-02  -2.1526081655668619e-02  -2.1538827752940005e-02  -2.0785287033259141e-02  -2.0779980815164634e-02  -1.5495967712127167e-02  -1.5501703994638944e-02  -2.6055739999206122e-02  -2.6070346114585190e-02  -2.0447516688188998e-02  -2.0394727904675881e-02  -1.5876222697371687e-02  -1.5869391572702590e-02  -1.5280081364451931e-02  -1.5274147603705336e-02  -1.4453502588582738e-02  -2.4298718935988294e-02  -2.4287763644023137e-02  -2.3653656744374148e-02  -2.3662708533938464e-02  -2.3962205377213920e-02  -2.4007466468193395e-02  -2.3370255004816171e-02  -2.3368373643421005e-02  -2.7007645162191420e-02  -2.7012488025718474e-02  -2.7074864497793661e-02  -2.7078587915504857e-02  -2.0532062433358454e-02  -2.0487200877390244e-02  -2.3190731264402679e-02  -2.3269624945829428e-02  -2.0467527144495696e-02  -2.0426648014979631e-02  -1.5155765808089822e-02  -1.4900955947558839e-02  -1.4893286691241382e-02  -8.7003065819087500e-03  -8.6988902001068121e-03  -8.5943699765271518e-03  -8.5941337422196697e-03  -1.3974799031179524e-02  -1.3973265641167625e-02  -2.5237625554181523e-02  -2.5224313822035514e-02  -2.5507237214359588e-02  -2.5503051648670384e-02  -2.5109089250551539e-02  -2.5120715018162904e-02  -2.7786299394457082e-02  -2.7772743952335227e-02  -2.4840923609497505e-02  -2.4834675629824006e-02  -2.7795313144257042e-02  -2.7803646730587970e-02  -2.0083559019842427e-02  -2.0090641430717811e-02  -1.7031085597323303e-02  -1.7028850101259915e-02  -1.9061967325424069e-02  -1.9209861226578091e-02  -1.9365015096038156e-02  -2.2448016408042580e-02  -2.2179377420501752e-02  -1.4159406508672874e-02  -1.4153655500637574e-02  -2.5803287890381589e-02  -2.5804420588614329e-02  -2.4218953584218283e-02  -2.4199834163345389e-02  -2.4760628382078154e-02  -2.4766865155798720e-02  -2.3990928140190895e-02  -2.3993677746726883e-02  -1.8737046169731007e-02  -1.8847171986459736e-02  -2.2965699625309539e-02  -2.2974280577089504e-02  -2.3114064470507994e-02  -2.3261976395300209e-02  -1.6172970547251486e-02  -1.6114502136746516e-02  -1.6102293413748400e-02  -2.6078194239423601e-02  -2.6065648339740476e-02  -1.6904868692761206e-02  -1.6849996496468785e-02  -1.5333209857042363e-02  -1.5331509654685613e-02  -2.0721448271785500e-02  -2.5242788018462987e-02  -2.5248957399496123e-02  -1.5192841453252727e-02  -1.5200992235170767e-02  -1.8607275506677269e-02  -2.4145219329453262e-02  -1.8587630627894331e-02  -2.4143010112270061e-02  -1.4240916717453627e-02  -1.4229550974052312e-02  -2.2943678744143093e-02  -2.2951539679408123e-02  -2.3258013926144221e-02  -2.3270469808645004e-02  -2.0201795275787117e-02  -2.0233213187597340e-02  -2.5750974994329899e-02  -2.5766129813165353e-02  -1.8039004077394793e-02  -2.3847575367908137e-02  -1.8106023259578490e-02  -2.3870923875088792e-02  -2.2579398612406938e-02  -2.2582576683488984e-02  -1.5873548064018538e-02  -1.5901592637539621e-02  -1.6107413146207939e-02  -1.6102569603491337e-02  -1.3343778825899121e-02  -1.3344473117977833e-02  -2.3490385709764340e-02  -2.3482633380230603e-02  -2.3985181266738612e-02  -2.3963471286321883e-02  -2.3887827390119073e-02  -2.3895619320623361e-02  -1.5257934493746924e-02  -1.5246009980764298e-02  -2.4915204433440537e-02  -2.4926466122312304e-02  -2.6872817798901303e-02  -2.6875042817201867e-02  -2.5228363519539977e-02  -2.5237653845216222e-02  -1.9860258414651652e-02  -1.9898603326178103e-02  -2.6226835804736375e-02  -2.6238937552396469e-02  -2.7115774065279444e-02  -2.7102324132513865e-02  -1.9345813342095723e-02  -1.9444605859926783e-02  -1.9662674447556251e-02  -1.9610951922065318e-02  -2.2786777675466333e-02  -2.2805931989398981e-02  -1.2975483792188257e-02  -1.2977583221201194e-02  -1.9421832343348114e-02  -1.9299711997986777e-02  -2.5302972518358245e-02  -2.4857947442801530e-02  -2.5277476015112245e-02  -2.4834763958623798e-02  -2.6975099200615211e-02  -2.6966115887474336e-02  -2.7801743412558092e-02  -2.7805952166931314e-02  -1.8110457426061610e-02  -1.8294563100604361e-02  -2.1915504603218654e-02  -2.1922329867306665e-02  -2.6421128384103945e-02  -2.6424009612736783e-02  -2.7935319021303560e-02  -2.7923329015754544e-02  -2.4271523644957816e-02  -2.4258708568658496e-02  -2.4020138399820420e-02  -2.4057499452130617e-02  -2.0101867357981879e-02  -1.5532233126312148e-02  -1.5533189129318737e-02  -2.0952557537331797e-02  -1.5883137745681779e-02  -1.5984328195988207e-02  -1.6003099901564941e-02  -1.4933569754242796e-02  -1.2517547861018045e-02  -1.2516866563201586e-02  -1.9238484240425263e-02  -1.9092641532451500e-02  -1.2811218256170064e-02  -1.2809513441832161e-02  -1.4240489721636202e-02  -1.5820539504472254e-02  -1.5833794265852939e-02  -1.9289498555514154e-02  -1.9307021413680524e-02  -1.4133525282032300e-02  -1.4129914883628712e-02  -2.3316345071884889e-02  -2.3284870305978009e-02  -2.3878700621359251e-02  -2.3878174280789539e-02  -2.7029295556710561e-02  -2.7015681954725677e-02  -2.3474018901645025e-02  -2.3478802014715722e-02  -2.3181847385373763e-02  -2.6344843763100517e-02  -2.6359434600737284e-02  -2.4810617693688655e-02  -2.4814538627851677e-02  -2.3037180544416044e-02  -1.8516496375340703e-02  -1.8385567822128281e-02  -2.5825629264104255e-02  -2.5835050155621674e-02  -1.8960376582063152e-02  -1.9118313804523793e-02  -1.4432581097638239e-02  -1.4431628183328566e-02  -1.8815050984595457e-02  -1.8720792558418395e-02  -1.4429789258120900e-02  -1.4459821955541807e-02  -1.8121294184452789e-02  -1.8592387999386679e-02  -2.3174174879515199e-02  -1.4013060410539674e-02  -2.2116517593941332e-02  -2.2126958237293617e-02  -2.1088991883928737e-02  -2.1080398587216498e-02  -2.2295094527282469e-02  -2.2295805472259640e-02  -2.2128341539381469e-02  -2.3679357323467487e-02  -2.2121389735603295e-02  -2.3654528159712373e-02  -2.6708670721013301e-02  -2.6720611240866554e-02  -2.5127016024452095e-02  -2.5117979339488634e-02  -2.3992375536111946e-02  -2.4000219806986429e-02  -2.2490330485481925e-02  -2.2466868027294765e-02  -2.5477189345053618e-02  -2.5497883120462399e-02  -2.6236100393085660e-02  -2.6233782099726068e-02  -2.3826687929409542e-02  -2.3837537343258185e-02  -2.0276938634646927e-02  -2.0262744649339581e-02  -2.1391880008402375e-02  -2.1383535687418107e-02  -2.1629217486234906e-02  -2.1620286866478221e-02  -2.5074665008669859e-02  -2.5082326748871637e-02  -1.8917861816825299e-02  -1.8878524915387631e-02  -1.8596900758976829e-02  -1.8419484643785265e-02  -2.4293127117458110e-02  -2.4327822804041128e-02  -2.3395644334759484e-02  -2.3408728336039391e-02  -1.3690988535450824e-02  -1.3697164095845114e-02  -2.1464304939969991e-02  -2.1491819932070309e-02  -2.1805691635211445e-02  -2.1718784926699063e-02  -2.3391036721099320e-02  -2.3411575579513327e-02  -1.9012831289671610e-02  -1.9100462904277887e-02  -2.0446061025862231e-02  -2.0424982436147279e-02  -2.4097939403735166e-02  -2.4088823982511772e-02  -2.4902477465711947e-02  -2.48846059