<?xml version="1.0"?>
<VTKFile type="UnstructuredGrid"  version="0.1"  >
<UnstructuredGrid>
<Piece  NumberOfPoints="1286" NumberOfCells="2474">
<Points>
<DataArray  type="Float64"  NumberOfComponents="3"  format="ascii">0 0 0  0 1 0  1 1 0  1 0 0  1.1 -0.1 0  -0.1 -0.1 0  1.1 1.1 0  -0.1 1.1 0  0.2515683250085074 0.4997821274330275 0  0.4995673696041641 0.4999461250654341 0  0 0.9499999999997918 0  0 0.8999999999995836 0  0 0.8499999999996529 0  0 0.7999999999999998 0  0 0.7500000000003466 0  0 0.7000000000006934 0  0 0.6500000000010401 0  0 0.6000000000013869 0  0 0.5500000000017335 0  0 0.5000000000020587 0  0 0.4500000000018723 0  0 0.4000000000016644 0  0 0.3500000000014564 0  0 0.3000000000012483 0  0 0.2500000000010403 0  0 0.2000000000008322 0  0 0.1500000000006241 0  0 0.100000000000416 0  0 0.05000000000020799 0  0.04999999999989965 0 0  0.09999999999981467 0 0  0.1499999999997036 0 0  0.1999999999995579 0 0  0.2499999999994121 0 0  0.2999999999992664 0 0  0.3499999999991206 0 0  0.3999999999989749 0 0  0.4499999999988292 0 0  0.4999999999986943 0 0  0.5499999999988151 0 0  0.5999999999989468 0 0  0.6499999999990784 0 0  0.69999999999921 0 0  0.7499999999993417 0 0  0.7999999999994734 0 0  0.8499999999996051 0 0  0.8999999999997368 0 0  0.9499999999998684 0 0  1 0.04999999999989965 0  1 0.09999999999981467 0  1 0.1499999999997036 0  1 0.1999999999995579 0  1 0.2499999999994121 0  1 0.2999999999992664 0  1 0.3499999999991206 0  1 0.3999999999989749 0  1 0.4499999999988292 0  1 0.4999999999986943 0  1 0.5499999999988151 0  1 0.5999999999989468 0  1 0.6499999999990784 0  1 0.69999999999921 0  1 0.7499999999993417 0  1 0.7999999999994734 0  1 0.8499999999996051 0  1 0.8999999999997368 0  1 0.9499999999998684 0  0.9499999999997918 1 0  0.8999999999995836 1 0  0.8499999999996529 1 0  0.7999999999999998 1 0  0.7500000000003466 1 0  0.7000000000006934 1 0  0.6500000000010401 1 0  0.6000000000013869 1 0  0.5500000000017335 1 0  0.5000000000020587 1 0  0.4500000000018723 1 0  0.4000000000016644 1 0  0.3500000000014564 1 0  0.3000000000012483 1 0  0.2500000000010403 1 0  0.2000000000008322 1 0  0.1500000000006241 1 0  0.100000000000416 1 0  0.05000000000020799 1 0  -0.1 1.05000000000004 0  -0.1 1.000000000000079 0  -0.1 0.9500000000001624 0  -0.1 0.9000000000003032 0  -0.1 0.850000000000444 0  -0.1 0.8000000000005848 0  -0.1 0.7500000000007256 0  -0.1 0.7000000000008665 0  -0.1 0.6500000000010508 0  -0.1 0.6000000000012352 0  -0.1 0.5500000000014196 0  -0.1 0.500000000001539 0  -0.1 0.4500000000014195 0  -0.1 0.4000000000013 0  -0.1 0.3500000000011588 0  -0.1 0.3000000000010178 0  -0.1 0.2500000000008986 0  -0.1 0.2000000000007579 0  -0.1 0.1500000000006174 0  -0.1 0.1000000000005272 0  -0.1 0.05000000000040083 0  -0.1 2.671196597248127e-13 0  -0.1 -0.0499999999998666 0  -0.0500000000000906 -0.1 0  -1.730560139634463e-13 -0.1 0  0.04999999999975802 -0.1 0  0.09999999999961506 -0.1 0  0.1499999999994613 -0.1 0  0.199999999999302 -0.1 0  0.2499999999991446 -0.1 0  0.2999999999990088 -0.1 0  0.3499999999988296 -0.1 0  0.3999999999986936 -0.1 0  0.4499999999985143 -0.1 0  0.4999999999984002 -0.1 0  0.5499999999985247 -0.1 0  0.5999999999986493 -0.1 0  0.6499999999987955 -0.1 0  0.6999999999989417 -0.1 0  0.7499999999990659 -0.1 0  0.7999999999992116 -0.1 0  0.8499999999993573 -0.1 0  0.8999999999994526 -0.1 0  0.949999999999584 -0.1 0  0.9999999999997226 -0.1 0  1.049999999999861 -0.1 0  1.1 -0.0500000000000906 0  1.1 -1.730560139634463e-13 0  1.1 0.04999999999975802 0  1.1 0.09999999999961506 0  1.1 0.1499999999994613 0  1.1 0.199999999999302 0  1.1 0.2499999999991446 0  1.1 0.2999999999990088 0  1.1 0.3499999999988296 0  1.1 0.3999999999986936 0  1.1 0.4499999999985143 0  1.1 0.4999999999984002 0  1.1 0.5499999999985247 0  1.1 0.5999999999986493 0  1.1 0.6499999999987955 0  1.1 0.6999999999989417 0  1.1 0.7499999999990659 0  1.1 0.7999999999992116 0  1.1 0.8499999999993573 0  1.1 0.8999999999994526 0  1.1 0.949999999999584 0  1.1 0.9999999999997226 0  1.1 1.049999999999861 0  1.05000000000004 1.1 0  1.000000000000079 1.1 0  0.9500000000001624 1.1 0  0.9000000000003032 1.1 0  0.850000000000444 1.1 0  0.8000000000005848 1.1 0  0.7500000000007256 1.1 0  0.7000000000008665 1.1 0  0.6500000000010508 1.1 0  0.6000000000012352 1.1 0  0.5500000000014196 1.1 0  0.500000000001539 1.1 0  0.4500000000014195 1.1 0  0.4000000000013 1.1 0  0.3500000000011588 1.1 0  0.3000000000010178 1.1 0  0.2500000000008986 1.1 0  0.2000000000007579 1.1 0  0.1500000000006174 1.1 0  0.1000000000005272 1.1 0  0.05000000000040083 1.1 0  2.671196597248127e-13 1.1 0  -0.0499999999998666 1.1 0  0.2533390283200752 0.4695200463939049 0  0.2587319774831979 0.440718808710474 0  0.2667214404084023 0.4134448509395072 0  0.2776701425517485 0.3873888886156863 0  0.2912582421553562 0.3633461570911056 0  0.3070410148140492 0.3413215306274921 0  0.3251627167273701 0.320628145543304 0  0.3462714432087735 0.3019855182096518 0  0.3691099378878679 0.2867258759118305 0  0.3933323668108954 0.2741870088309506 0  0.4193267966004496 0.2643895235250741 0  0.4470705088369059 0.2573422606235048 0  0.4765938327653345 0.2532335610175611 0  0.5074137224331761 0.2520768789977669 0  0.5378007604879467 0.2547686971804609 0  0.5663887128736851 0.2606632730205856 0  0.5932287133771883 0.2689660563948875 0  0.6185150852588353 0.2804680525127811 0  0.6420893995686919 0.2948551801425884 0  0.6640144447605063 0.3121238003711828 0  0.6834178432716679 0.3311758504866164 0  0.7009910453345242 0.3529423293711857 0  0.7155897114468364 0.3761259807380318 0  0.7277981324296089 0.4004464639805385 0  0.7378445720478702 0.4268284738892464 0  0.7447490439647012 0.4549406461647359 0  0.7488320480861507 0.4845563210390769 0  0.7486856101473002 0.5153897429558862 0  0.7443883444633109 0.5450036380608256 0  0.7374610274352575 0.5730668045295242 0  0.727467568105779 0.5994959846694169 0  0.7153573108193415 0.6241020405827618 0  0.7009480659794856 0.6475439304872503 0  0.6835560771649113 0.6694704779448518 0  0.6641450940767034 0.6886750972954524 0  0.6423805888903031 0.7057612539433301 0  0.618776964727444 0.7200259897021808 0  0.5933850283319334 0.7314512757542044 0  0.5664250283838042 0.7396703982927474 0  0.5378289386417685 0.7454955446448368 0  0.5074322168366641 0.748177543382361 0  0.4767034543472784 0.7469843301535479 0  0.4473773521452584 0.7426883891457444 0  0.4196360568443575 0.7352677295640757 0  0.3937676327083801 0.7252456472932777 0  0.3697163022540674 0.7126567049212852 0  0.3470264762262409 0.6974652629075094 0  0.3257655950902277 0.6788337077394142 0  0.3075259742081988 0.6583958977972832 0  0.2915117380689243 0.6365339576461032 0  0.2778072331219378 0.6124814388327036 0  0.2666976082402599 0.5863960679372126 0  0.2586374588624979 0.5589762127832639 0  0.2532913275932919 0.5300694529897768 0  0.5013516890583437 0.6150827797669479 0  0.5070203122360956 0.3790842410414524 0  0.6293743495658571 0.4985512440818674 0  0.3647701615685173 0.4998608803756042 0  0.4101910532006519 0.4224957045457964 0  0.4073138222737474 0.5773422879974995 0  0.5790166613727454 0.405769350298179 0  0.578632814357213 0.5943585096560617 0  0.438034482114434 0.6441183983103986 0  0.4859645005827435 0.6825357651651756 0  0.5456188911179202 0.6807987744925779 0  0.4330031557230121 0.3519873540964299 0  0.4863333030444388 0.3158158865413495 0  0.547513547670093 0.3189930304876448 0  0.6507148968452645 0.5881983318603622 0  0.6512029731001231 0.4121563953718665 0  0.3455688118672854 0.5762151384652359 0  0.3447557746771802 0.4230683463401217 0  0.3822260372353513 0.6392615284390356 0  0.3830691624158519 0.3597345603411385 0  0.5922956004275738 0.6517704068122138 0  0.5932343294721074 0.3477215833556773 0  0.689699932945449 0.5000650624323821 0  0.6902498874271966 0.5551252991155248 0  0.6902208242967542 0.4456815768500325 0  0.3065964291947798 0.4537313826652593 0  0.2972574671102766 0.5059673806716695 0  0.6358250729458274 0.3672070339178455 0  0.6364304275746757 0.6337967503726394 0  0.3045047965229895 0.556561981161285 0  0.4250667339388011 0.513284123213216 0  0.440877571283489 0.6930466598516634 0  0.4410522296444385 0.3071503564498593 0  0.3463218523979827 0.3789573074017995 0  0.3462976032001968 0.6215949040666853 0  0.5631342994764831 0.5249557293660728 0  0.52114295623328 0.4399453225984259 0  0.5200845386633781 0.2890553528096005 0  0.5195912428044726 0.7108184885242285 0  0.4692385058815697 0.5729458288322233 0  0.4680302146166526 0.4451297880444436 0  0.3967854883688561 0.6705784413532655 0  0.3973822545312699 0.3297469283834024 0  0.6033412829567122 0.4571019577816541 0  0.6021198041155805 0.541470166262874 0  0.5819706795158562 0.3148538930207502 0  0.5813079064208073 0.6850590047102616 0  0.395628363803145 0.5311442034130188 0  0.3900507770377811 0.4650521701627572 0  0.447537976602181 0.4177103636392721 0  0.7099044944520825 0.5306114053296264 0  0.7111359666004615 0.4682729432719374 0  0.5433273860576225 0.6100910430390013 0  0.5447667205146371 0.389348136457371 0  0.6932051212497988 0.5897768757931914 0  0.6933283059515662 0.4102544994374904 0  0.4293024689887183 0.6092289774064356 0  0.3036026159509024 0.4172664271040928 0  0.4724602909005927 0.7198990784430911 0  0.4724534604407397 0.2802435416329857 0  0.4609119044634674 0.6679228326449027 0  0.4585928390956392 0.3323465815099066 0  0.6666778834033413 0.3752372468377588 0  0.666453696302849 0.6250059418620546 0  0.62941092994956 0.3342410083074805 0  0.6296393087038025 0.6661603231185054 0  0.2828213871720133 0.4710062714280063 0  0.3078383038154529 0.5871324009304497 0  0.7221501474926555 0.5000104560584685 0  0.5169142898074586 0.5648400976577946 0  0.2837104568782083 0.5361943557519925 0  0.3192482628559684 0.3904094033970087 0  0.4623773241605126 0.6056724617722432 0  0.5673694523280386 0.289846238388666 0  0.5662571239521663 0.7103721309128591 0  0.3540799765578423 0.5369062004964085 0  0.3234206966341128 0.5254911486136646 0  0.56149120
[...]
<PointData  Scalars="state"> 
<DataArray  type="Float64"  Name="state"  format="ascii">0.0000000000000000e+00  0.0000000000000000e+00  0.0000000000000000e+00  0.0000000000000000e+00  0.0000000000000000e+00  0.0000000000000000e+00  0.0000000000000000e+00  0.0000000000000000e+00  -1.0487348296123132e-02  1.3753251751247073e+00  0.0000000000000000e+00  0.0000000000000000e+00  0.0000000000000000e+00  0.0000000000000000e+00  0.0000000000000000e+00  0.0000000000000000e+00  0.0000000000000000e+00  0.0000000000000000e+00  0.0000000000000000e+00  0.0000000000000000e+00  0.0000000000000000e+00  0.0000000000000000e+00  0.0000000000000000e+00  0.0000000000000000e+00  0.0000000000000000e+00  0.0000000000000000e+00  0.0000000000000000e+00  0.0000000000000000e+00  0.0000000000000000e+00  0.0000000000000000e+00  0.0000000000000000e+00  0.0000000000000000e+00  0.0000000000000000e+00  0.0000000000000000e+00  0.0000000000000000e+00  0.0000000000000000e+00  0.0000000000000000e+00  0.0000000000000000e+00  0.0000000000000000e+00  0.0000000000000000e+00  0.0000000000000000e+00  0.0000000000000000e+00  0.0000000000000000e+00  0.0000000000000000e+00  0.0000000000000000e+00  0.0000000000000000e+00  0.0000000000000000e+00  0.0000000000000000e+00  0.0000000000000000e+00  0.0000000000000000e+00  0.0000000000000000e+00  0.0000000000000000e+00  0.0000000000000000e+00  0.0000000000000000e+00  0.0000000000000000e+00  0.0000000000000000e+00  0.0000000000000000e+00  0.0000000000000000e+00  0.0000000000000000e+00  0.0000000000000000e+00  0.0000000000000000e+00  0.0000000000000000e+00  0.0000000000000000e+00  0.0000000000000000e+00  0.0000000000000000e+00  0.0000000000000000e+00  0.0000000000000000e+00  0.0000000000000000e+00  0.0000000000000000e+00  0.0000000000000000e+00  0.0000000000000000e+00  0.0000000000000000e+00  0.0000000000000000e+00  0.0000000000000000e+00  0.0000000000000000e+00  0.0000000000000000e+00  0.0000000000000000e+00  0.0000000000000000e+00  0.0000000000000000e+00  0.0000000000000000e+00  0.0000000000000000e+00  0.0000000000000000e+00  0.0000000000000000e+00  0.0000000000000000e+00  0.0000000000000000e+00  0.0000000000000000e+00  0.0000000000000000e+00  0.0000000000000000e+00  0.0000000000000000e+00  0.0000000000000000e+00  0.0000000000000000e+00  0.0000000000000000e+00  0.0000000000000000e+00  0.0000000000000000e+00  0.0000000000000000e+00  0.0000000000000000e+00  0.0000000000000000e+00  0.0000000000000000e+00  0.0000000000000000e+00  0.0000000000000000e+00  0.0000000000000000e+00  0.0000000000000000e+00  0.0000000000000000e+00  0.0000000000000000e+00  0.0000000000000000e+00  0.0000000000000000e+00  0.0000000000000000e+00  0.0000000000000000e+00  0.0000000000000000e+00  0.0000000000000000e+00  0.0000000000000000e+00  0.0000000000000000e+00  0.0000000000000000e+00  0.0000000000000000e+00  0.0000000000000000e+00  0.0000000000000000e+00  0.0000000000000000e+00  0.0000000000000000e+00  0.0000000000000000e+00  0.0000000000000000e+00  0.0000000000000000e+00  0.0000000000000000e+00  0.0000000000000000e+00  0.0000000000000000e+00  0.0000000000000000e+00  0.0000000000000000e+00  0.0000000000000000e+00  0.0000000000000000e+00  0.0000000000000000e+00  0.0000000000000000e+00  0.0000000000000000e+00  0.0000000000000000e+00  0.0000000000000000e+00  0.0000000000000000e+00  0.0000000000000000e+00  0.0000000000000000e+00  0.0000000000000000e+00  0.0000000000000000e+00  0.0000000000000000e+00  0.0000000000000000e+00  0.0000000000000000e+00  0.0000000000000000e+00  0.0000000000000000e+00  0.0000000000000000e+00  0.0000000000000000e+00  0.0000000000000000e+00  0.0000000000000000e+00  0.0000000000000000e+00  0.0000000000000000e+00  0.0000000000000000e+00  0.0000000000000000e+00  0.0000000000000000e+00  0.0000000000000000e+00  0.0000000000000000e+00  0.0000000000000000e+00  0.0000000000000000e+00  0.0000000000000000e+00  0.0000000000000000e+00  0.0000000000000000e+00  0.0000000000000000e+00  0.0000000000000000e+00  0.0000000000000000e+00  0.0000000000000000e+00  0.0000000000000000e+00  0.0000000000000000e+00  0.0000000000000000e+00  0.0000000000000000e+00  0.0000000000000000e+00  0.0000000000000000e+00  0.0000000000000000e+00  0.0000000000000000e+00  0.0000000000000000e+00  0.0000000000000000e+00  0.0000000000000000e+00  0.0000000000000000e+00  0.0000000000000000e+00  0.0000000000000000e+00  0.0000000000000000e+00  -8.3034588979565230e-03  -8.9427808750036000e-03  -5.2910593365468302e-03  -5.7072590886940010e-03  -6.1533616713964267e-03  -8.0526708594229456e-03  -1.3260571379748935e-03  -5.3973716139441080e-03  -8.9454536970829911e-03  -8.5585620714308079e-03  -8.8237934585148683e-03  -7.8817932569429181e-03  -9.4170413071612315e-03  -8.7308114667085917e-03  -8.8665242294234496e-03  -8.8974067799442585e-03  -6.6031170938426441e-03  -8.0465077659021087e-03  -3.6995566202088731e-03  -6.2914334525836909e-03  -7.6004866026061881e-03  -2.9728974151790846e-03  -7.5103987374848706e-03  -8.2848821504604257e-03  -7.5005184315952850e-03  -9.7813586275483262e-03  -8.0309589684679529e-03  -7.9184668652987275e-03  -9.6790232631361137e-03  -7.3135059045255262e-03  -8.1366206080980240e-03  -7.3744201275050417e-03  -3.0704802175489515e-03  -7.8400684179086196e-03  -6.6473127191619451e-03  -3.8478941870860942e-03  -8.1774747734165709e-03  -6.6559531626761816e-03  -8.9306158533875492e-03  -8.9026357285506511e-03  -8.8769620229473909e-03  -9.5607762117838248e-03  -7.9418690733629328e-03  -8.6961527155132792e-03  -8.4738266985875301e-03  -8.9623358157301467e-03  -5.3829690211945405e-03  -1.5506185996101525e-03  -8.2613495534808092e-03  -6.6718448249971380e-03  -3.4503433665306893e-03  -8.2666695195075836e-03  -8.9318265900206074e-03  -7.9654649068185372e-03  9.2951853702904985e-01  8.9070782468020859e-01  8.5339113893777252e-01  8.2228336291410131e-01  9.1313737623793056e-01  8.9675959937234817e-01  8.7225176319519426e-01  8.7315451441207803e-01  5.3665651246584101e-01  1.8780756556221048e-01  1.5324584703425873e-01  4.6091186778790683e-01  1.7136313698442757e-01  1.4707176264404984e-01  2.4356672204834495e-01  2.3915073661846820e-01  2.7673789049078323e-01  2.6662444383784267e-01  1.8071059386512928e-01  1.8168973902822710e-01  2.1815050649012460e-01  2.0639165144946819e-01  1.4072997298381043e-01  1.1021489215721444e-01  1.1073503254101559e-01  1.1008743870629878e-01  8.5039077163733434e-02  1.2461380455360187e-01  1.1950663049032742e-01  8.8518009712674789e-02  1.1713880210170542e+00  9.3425089786954615e-02  9.3239404058257286e-02  1.1626619568806322e-01  1.1220132823724807e-01  1.2241128024056387e+00  1.2375762401939081e+00  6.5442294505395321e-02  6.6740241580541856e-02  1.1525176222857056e+00  1.2363265978202238e+00  8.4947799527424581e-02  9.4514109343003166e-02  9.3359173574848642e-01  9.4421350752577726e-01  8.1175586685857087e-02  8.2979409584793148e-02  9.5192806156812138e-01  9.0962345913648890e-01  1.0261104194229795e+00  6.8868522221009129e-02  6.4545892871773689e-02  9.1537236598812866e-01  9.1148162452785320e-01  6.6603539922903493e-02  6.6470135217910273e-02  8.5182326519352858e-01  6.5674115496734256e-02  5.8603322526981437e-02  5.8659538885217355e-02  2.8505470383510678e-01  2.9825648087380452e-01  7.7662067445110533e-02  7.8254372537079758e-02  7.6737719170069732e-02  7.5876224671376821e-02  6.2441502311837281e-02  6.5618258585175976e-02  5.5634582060860083e-02  1.2246012783695375e+00  5.6581649119713091e-02  6.4446999041090441e-02  9.3913157698469307e-01  5.8871500117036304e-02  5.9623299659227684e-02  6.5989858076875663e-01  2.1966577968642204e-01  4.4223634449130039e-01  4.5560143116960639e-01  6.3373288360740632e-01  6.5342090785910856e-01  6.1645914675012659e-01  6.3385411233736089e-01  6.3241803813792186e-01  6.5471347458949880e-01  6.4768413377610579e-01  7.2557934383355527e-01  4.5059628475023394e-01  6.8807299291747809e-02  6.1877415012634780e-02  6.2455920826084733e-02  6.9700243468383771e-01  5.4547184079062494e-01  6.1615669808383969e-02  6.2344535593165745e-02  1.2084721967016807e+00  5.7371767301727505e-01  5.5935211688662068e-01  8.2429980508629019e-01  5.6781824638844978e-02  5.6321893334165429e-02  2.9698674508990774e-01  6.7444658259748796e-02  6.3671034903828833e-02  5.4497148369258203e-02  5.3822058551621234e-02  3.8729004605348066e-01  1.8619337681971693e-01  1.8493935243151527e-01  4.8076941001508472e-02  5.2959010297495383e-02  5.1276305936265559e-02  5.0838467719916999e-02  5.3518117441250998e-02  5.3801999145137704e-02  5.7275458478089666e-02  5.8157925360273942e-02  3.8510661333992013e-01  2.2593392530179948e-01  2.2020007956021681e-01  1.0023161300841790e+00  3.4566843735400876e-01  3.3863644272333410e-01  2.0026194715339921e-01  1.1334680814866132e+00  5.7086013547947922e-01  5.8209671922461925e-01  8.7507009150914938e-01  5.4533067926328771e-01  5.5219033065800183e-01  5.0367242942314407e-02  5.0368671281844433e-02  4.7762210983577753e-02  4.3742158200875923e-02  4.3930436194724261e-02  2.0916458474489144e-01  1.0880189448162467e+00  1.5628663668555090e-01  1.8349290505443858e-01  9.8415035259341282e-02  1.0015269096423726e-01  5.7284831068298826e-02  6.6653218814473136e-01  4.7664631138384435e-02  4.7242174017057922e-02  1.4248279440125805e-01  1.4581055399446932e-01  1.0729516153807894e+00  9.9973989991052026e-01  4.4370310703341825e-02  4.4655438585023507e-02  6.6387790522962553e-01  1.0796433839054351e+00  1.1104232874945348e+00  9.2353302720642932e-02  9.2002530902502183e-02  4.2963023084890001e-01  4.3821896799907972e-02  1.1909025189247707e-01  7.3723507112985931e-01  7.4683530099633499e-01  5.7064644098971190e-02  1.2825326714565897e+00  4.6627802398860538e-02  4.6653665117269073e-02  2.1027132563393303e-01  2.1089375474212885e-01  9.1605961430555202e-02  9.2445928212064987e-02  1.0549926469818274e+00  2.2666809470563717e-01  2.2691269448059312e-01  8.0354225964791703e-01  4.6689083645069532e-02  4.6878340334086846e-02  4.9127422624153420e-02  5.0046058073532164e-02  4.6174105205975806e-02  4.6395861031258312e-02  7.8962873202605188e-01  8.6652112181072694e-01  1.9083045255518763e-01  1.9886972836911154e-01  4.9689656796359352e-02  1.0581998612127048e+00  7.9756600322298865e-01  8.7946687916268140e-01  2.1471114287528775e-01  7.8106088929046835e-01  7.8676160211382906e-01  1.2795740710916064e+00  2.9202894196382317e-01  2.6810011597092559e-01  5.0913294745795701e-02  5.1484658891468256e-02  5.3432446629302167e-02  -2.6977425960462608e-02  -2.6973065850451783e-02  -2.7091680248139540e-02  -2.7075682850341884e-02  -2.4370704632790646e-02  -2.4335727710959456e-02  -2.4931120070357599e-02  -2.4943326038766561e-02  -2.5092473407696651e-02  -2.5106098347892264e-02  -2.5489167188302020e-02  -2.5507644130919029e-02  -2.2415882025881861e-02  -2.2411777600497319e-02  -2.2191260506854736e-02  -2.2415501774188815e-02  -2.6405931444967654e-02  -2.6421631057873866e-02  -2.6184364401978161e-02  -2.6165430105502614e-02  -2.5380483206238352e-02  -2.5381578366279994e-02  -2.5351899157492436e-02  -2.5350981673517948e-02  -2.3218530923609575e-02  -2.3228576072130806e-02  -2.2972771715380050e-02  -2.3504439201792317e-02  -2.2961899456918712e-02  -2.3488762296296910e-02  -2.3657991520723638e-02  -2.3646710032855865e-02  -2.2152115845255609e-02  -1.9128584105959426e-02  -2.2138324993654382e-02  -1.9121253725380895e-02  -2.3751784803533904e-02  -2.3763649944674631e-02  -1.8559861396495791e-02  -1.8561064884585855e-02  -2.3473642190833040e-02  -2.3424131121979393e-02  -2.1554308041993923e-02  -2.1543458978296064e-02  -2.2600060239104519e-02  -2.1957747028989453e-02  -2.1943587772580469e-02  -2.2586390017116445e-02  -2.2607224497624184e-02  -2.1720883935619096e-02  -2.1718168491044226e-02  -2.1507298847291634e-02  -2.1516697260144213e-02  -2.2448892445450015e-02  -1.8249229300466217e-02  -1.9615188879316531e-02  -1.8034049538481998e-02  -1.8043168345820440e-02  -1.7741492027283017e-02  -1.7317667479134047e-02  -2.6588116125574983e-02  -2.6599261297509478e-02  -2.7137683688764885e-02  -2.7142477248808170e-02  -2.3121425139561128e-02  -2.2818590887402537e-02  -2.3170444165781172e-02  -2.2874096190347974e-02  -2.6792937140709485e-02  -2.6782003876796186e-02  -2.7423796731825722e-02  -2.7442263527161774e-02  -2.3656279141113512e-02  -2.3632286549267339e-02  -1.7674495740920979e-02  -1.7735905783352754e-02  -1.7133748304031859e-02  -1.7112863689193843e-02  -2.2724812510565729e-02  -2.2713967966417687e-02  -1.7292707417530719e-02  -1.7277630542620791e-02  -2.2470211652537552e-02  -2.2499083643852134e-02  -2.1148012156795005e-02  -2.3123206260873375e-02  -2.1127079057587216e-02  -2.3121828630655976e-02  -2.1536279471784804e-02  -2.1550734671171228e-02  -2.1142734383100537e-02  -2.1120399626431013e-02  -2.0055735215285742e-02  -2.0129716464228301e-02  -2.1163508053153840e-02  -2.1109887603339424e-02  -2.3267612438513729e-02  -2.3276404882449388e-02  -2.3613428084237397e-02  -2.3621361118559236e-02  -2.0438826233571312e-02  -2.0476745602535040e-02  -2.3662374403946258e-02  -2.3647672733911874e-02  -2.0154959030761924e-02  -2.0146866226824135e-02  -2.5618986949069326e-02  -2.5629313202607300e-02  -2.1336215351440632e-02  -2.1357523078621012e-02  -2.0597171475806787e-02  -2.0583204491357553e-02  -1.5455876371806909e-02  -1.5462607955067076e-02  -2.5899409607879450e-02  -2.5918463033297843e-02  -2.0260836074522840e-02  -2.0214729663874258e-02  -1.5794187396684645e-02  -1.5791379720985630e-02  -1.5240588171061978e-02  -1.5232715527188604e-02  -1.4383019721415469e-02  -2.4142369110111632e-02  -2.4137911611172527e-02  -2.3575771361868430e-02  -2.3588513025643840e-02  -2.3821331979054037e-02  -2.3867857302476939e-02  -2.3297270498978454e-02  -2.3297338461276455e-02  -2.6859946483214887e-02  -2.6868782047047006e-02  -2.6920324155543598e-02  -2.6930071927332731e-02  -2.0347156398428486e-02  -2.0303025733440182e-02  -2.3050072036645920e-02  -2.3124808057290412e-02  -2.0289384441573261e-02  -2.0242409385678447e-02  -1.5076673161962635e-02  -1.4862566462347324e-02  -1.4856202482271935e-02  -8.6850804498412575e-03  -8.6828976789132348e-03  -8.5797566110121758e-03  -8.5791074908073018e-03  -1.3940546410968787e-02  -1.3937215554588182e-02  -2.5086459877597143e-02  -2.5075071143179830e-02  -2.5347256201753363e-02  -2.5351107658199881e-02  -2.4997969302757075e-02  -2.5014927311751325e-02  -2.7652338100951031e-02  -2.7633084812306412e-02  -2.4737855202604794e-02  -2.4729567112361132e-02  -2.7666437688226204e-02  -2.7670635669015977e-02  -1.9893034632914672e-02  -1.9910227842922509e-02  -1.6941317400321149e-02  -1.6943549229940277e-02  -1.8884996541904925e-02  -1.9038498186765441e-02  -1.9170121402619214e-02  -2.2321817355489330e-02  -2.2057232420946427e-02  -1.4114327377592231e-02  -1.4106385843675089e-02  -2.5705665787743314e-02  -2.5709246022982558e-02  -2.4114445348815457e-02  -2.4099296602478788e-02  -2.4598600924074815e-02  -2.4607084898460994e-02  -2.3885375808704212e-02  -2.3883984296699728e-02  -1.8542281553018458e-02  -1.8651493397978211e-02  -2.2829200721047084e-02  -2.2831116533294105e-02  -2.2940063452790621e-02  -2.3089627165199089e-02  -1.6090541187025059e-02  -1.6059243160486566e-02  -1.6049229274656188e-02  -2.5978211617012432e-02  -2.5960706734153051e-02  -1.6854335999975108e-02  -1.6798764422565393e-02  -1.5288354076935176e-02  -1.5288699447256816e-02  -2.0519195266940755e-02  -2.5142800977547362e-02  -2.5153431065623091e-02  -1.5152722719264119e-02  -1.5159367984072887e-02  -1.8418520048355633e-02  -2.3971583173319429e-02  -1.8404869612758695e-02  -2.3976532723020437e-02  -1.4177298635322896e-02  -1.4168845779311249e-02  -2.2769008784450821e-02  -2.2784894261425149e-02  -2.3081983690020146e-02  -2.3103564841140262e-02  -1.9997703115501815e-02  -2.0037757017940746e-02  -2.5655272480525335e-02  -2.5667056087744240e-02  -1.7836143054820883e-02  -2.3678934311635317e-02  -1.7910178073070007e-02  -2.3706414730832306e-02  -2.2471022175504771e-02  -2.2475739970587671e-02  -1.5818172493484935e-02  -1.5842613798669879e-02  -1.6047071434044866e-02  -1.6039048258487482e-02  -1.3315167357137749e-02  -1.3316587560813357e-02  -2.3337004176464941e-02  -2.3321154553590184e-02  -2.3824909868877073e-02  -2.3796782941230644e-02  -2.3763075328632914e-02  -2.3777120224167777e-02  -1.5204954609843368e-02  -1.5195192754497903e-02  -2.4763428468004826e-02  -2.4782354715529718e-02  -2.6730475487056784e-02  -2.6735652416535815e-02  -2.5080203444585499e-02  -2.5083446885036449e-02  -1.9671589911637775e-02  -1.9717056027697549e-02  -2.6072854324335964e-02  -2.6089353200137964e-02  -2.6972601832298469e-02  -2.6952103378501804e-02  -1.9163951355520108e-02  -1.9266829811225541e-02  -1.9490085660177854e-02  -1.9438769152058111e-02  -2.2677898917617539e-02  -2.2692263105416388e-02  -1.2951418118930660e-02  -1.2954615618312541e-02  -1.9239793100401009e-02  -1.9126495752038345e-02  -2.5140958679843110e-02  -2.4694581027663830e-02  -2.5111459166069064e-02  -2.4666967391585408e-02  -2.6830923133098841e-02  -2.6826990005999238e-02  -2.7680921851009788e-02  -2.7681739607686280e-02  -1.7936643802436935e-02  -1.8128673433971593e-02  -2.1801668520957714e-02  -2.1812031469782951e-02  -2.6261414184195257e-02  -2.6270073419196974e-02  -2.7809660862180837e-02  -2.7791943249491424e-02  -2.4117684298534364e-02  -2.4101407339444134e-02  -2.3851515355391054e-02  -2.3894274225751719e-02  -1.9989857593425971e-02  -1.5468323317171392e-02  -1.5472474878267467e-02  -2.0833344404716073e-02  -1.5821089572381739e-02  -1.5920312582927629e-02  -1.5938364089075348e-02  -1.4877219613007763e-02  -1.2496552054307893e-02  -1.2496500317802268e-02  -1.9034164477932707e-02  -1.8890497160765157e-02  -1.2789311180345812e-02  -1.2786550790916597e-02  -1.4177024483077309e-02  -1.5781985873164522e-02  -1.5796044673316020e-02  -1.9087292583953440e-02  -1.9112606172591945e-02  -1.4100178335134571e-02  -1.4094787293148224e-02  -2.3149655898658389e-02  -2.3119097238557776e-02  -2.3713779754906808e-02  -2.3719970787351951e-02  -2.6882919471081478e-02  -2.6864019299941321e-02  -2.3297086515514594e-02  -2.3310872093322058e-02  -2.3016175931121777e-02  -2.6209050875137169e-02  -2.6218233760844888e-02  -2.4660234411891885e-02  -2.4665630955774148e-02  -2.2879327009775522e-02  -1.8333151595940338e-02  -1.8202463242391980e-02  -2.5689976479878165e-02  -2.5703981063033648e-02  -1.8778070338435357e-02  -1.8940855215504350e-02  -1.4373891559938963e-02  -1.4375798410836367e-02  -1.8622258246226910e-02  -1.8526671437296395e-02  -1.4385725759129397e-02  -1.4414771963888689e-02  -1.7947782250983365e-02  -1.8415201375258525e-02  -2.3013386819575488e-02  -1.3951234615387479e-02  -2.1931369041045607e-02  -2.1949781229042734e-02  -2.0969765745327128e-02  -2.0966909505341545e-02  -2.2169117536301335e-02  -2.2176127920977975e-02  -2.1943244830901695e-02  -2.3507244574964677e-02  -2.1936599927236983e-02  -2.3480779130594317e-02  -2.6575852482575744e-02  -2.6594183053952156e-02  -2.5041422446655168e-02  -2.5028189500572971e-02  -2.3826666833468572e-02  -2.3826555674777542e-02  -2.2317385305909362e-02  -2.2294746267259139e-02  -2.5318692079052116e-02  -2.5345043127609351e-02  -2.6112432799548280e-02  -2.6107805862055453e-02  -2.3663701073015280e-02  -2.3671760314275342e-02  -2.0214141669953226e-02  -2.0202229761149524e-02  -2.1329027910296915e-02  -2.1319214584369799e-02  -2.1565083448759105e-02  -2.1552948872004828e-02  -2.4992256952904243e-02  -2.4997419242549203e-02  -1.8719029565167019e-02  -1.8679186612363157e-02  -1.8410014037423036e-02  -1.8220634573541342e-02  -2.4183269060315045e-02  -2.4219602054199339e-02  -2.3261471617799945e-02  -2.3268444861439520e-02  -1.3635617605156787e-02  -1.3639047061380371e-02  -2.1380291043291932e-02  -2.1409143305451604e-02  -2.1626561143831130e-02  -2.1539314085179544e-02  -2.3287145485612309e-02  -2.3303204427606038e-02  -1.8799579685490918e-02  -1.8901508137930220e-02  -2.0361416692960130e-02  -2.0343862910177132e-02  -2.3940881210490924e-02  -2.3923249316047512e-02  -2.4802391312190124e-02  -2.47882005