<?xml version="1.0"?>
<VTKFile type="UnstructuredGrid"  version="0.1"  >
<UnstructuredGrid>
<Piece  NumberOfPoints="1286" NumberOfCells="2474">
<Points>
<DataArray  type="Float64"  NumberOfComponents="3"  format="ascii">0 0 0  0 1 0  1 1 0  1 0 0  1.1 -0.1 0  -0.1 -0.1 0  1.1 1.1 0  -0.1 1.1 0  0.2521598655332496 0.4997431867801303 0  0.4995427394337892 0.4999480762270447 0  0 0.9499999999997918 0  0 0.8999999999995836 0  0 0.8499999999996529 0  0 0.7999999999999998 0  0 0.7500000000003466 0  0 0.7000000000006934 0  0 0.6500000000010401 0  0 0.6000000000013869 0  0 0.5500000000017335 0  0 0.5000000000020587 0  0 0.4500000000018723 0  0 0.4000000000016644 0  0 0.3500000000014564 0  0 0.3000000000012483 0  0 0.2500000000010403 0  0 0.2000000000008322 0  0 0.1500000000006241 0  0 0.100000000000416 0  0 0.05000000000020799 0  0.04999999999989965 0 0  0.09999999999981467 0 0  0.1499999999997036 0 0  0.1999999999995579 0 0  0.2499999999994121 0 0  0.2999999999992664 0 0  0.3499999999991206 0 0  0.3999999999989749 0 0  0.4499999999988292 0 0  0.4999999999986943 0 0  0.5499999999988151 0 0  0.5999999999989468 0 0  0.6499999999990784 0 0  0.69999999999921 0 0  0.7499999999993417 0 0  0.7999999999994734 0 0  0.8499999999996051 0 0  0.8999999999997368 0 0  0.9499999999998684 0 0  1 0.04999999999989965 0  1 0.09999999999981467 0  1 0.1499999999997036 0  1 0.1999999999995579 0  1 0.2499999999994121 0  1 0.2999999999992664 0  1 0.3499999999991206 0  1 0.3999999999989749 0  1 0.4499999999988292 0  1 0.4999999999986943 0  1 0.5499999999988151 0  1 0.5999999999989468 0  1 0.6499999999990784 0  1 0.69999999999921 0  1 0.7499999999993417 0  1 0.7999999999994734 0  1 0.8499999999996051 0  1 0.8999999999997368 0  1 0.9499999999998684 0  0.9499999999997918 1 0  0.8999999999995836 1 0  0.8499999999996529 1 0  0.7999999999999998 1 0  0.7500000000003466 1 0  0.7000000000006934 1 0  0.6500000000010401 1 0  0.6000000000013869 1 0  0.5500000000017335 1 0  0.5000000000020587 1 0  0.4500000000018723 1 0  0.4000000000016644 1 0  0.3500000000014564 1 0  0.3000000000012483 1 0  0.2500000000010403 1 0  0.2000000000008322 1 0  0.1500000000006241 1 0  0.100000000000416 1 0  0.05000000000020799 1 0  -0.1 1.05000000000004 0  -0.1 1.000000000000079 0  -0.1 0.9500000000001624 0  -0.1 0.9000000000003032 0  -0.1 0.850000000000444 0  -0.1 0.8000000000005848 0  -0.1 0.7500000000007256 0  -0.1 0.7000000000008665 0  -0.1 0.6500000000010508 0  -0.1 0.6000000000012352 0  -0.1 0.5500000000014196 0  -0.1 0.500000000001539 0  -0.1 0.4500000000014195 0  -0.1 0.4000000000013 0  -0.1 0.3500000000011588 0  -0.1 0.3000000000010178 0  -0.1 0.2500000000008986 0  -0.1 0.2000000000007579 0  -0.1 0.1500000000006174 0  -0.1 0.1000000000005272 0  -0.1 0.05000000000040083 0  -0.1 2.671196597248127e-13 0  -0.1 -0.0499999999998666 0  -0.0500000000000906 -0.1 0  -1.730560139634463e-13 -0.1 0  0.04999999999975802 -0.1 0  0.09999999999961506 -0.1 0  0.1499999999994613 -0.1 0  0.199999999999302 -0.1 0  0.2499999999991446 -0.1 0  0.2999999999990088 -0.1 0  0.3499999999988296 -0.1 0  0.3999999999986936 -0.1 0  0.4499999999985143 -0.1 0  0.4999999999984002 -0.1 0  0.5499999999985247 -0.1 0  0.5999999999986493 -0.1 0  0.6499999999987955 -0.1 0  0.6999999999989417 -0.1 0  0.7499999999990659 -0.1 0  0.7999999999992116 -0.1 0  0.8499999999993573 -0.1 0  0.8999999999994526 -0.1 0  0.949999999999584 -0.1 0  0.9999999999997226 -0.1 0  1.049999999999861 -0.1 0  1.1 -0.0500000000000906 0  1.1 -1.730560139634463e-13 0  1.1 0.04999999999975802 0  1.1 0.09999999999961506 0  1.1 0.1499999999994613 0  1.1 0.199999999999302 0  1.1 0.2499999999991446 0  1.1 0.2999999999990088 0  1.1 0.3499999999988296 0  1.1 0.3999999999986936 0  1.1 0.4499999999985143 0  1.1 0.4999999999984002 0  1.1 0.5499999999985247 0  1.1 0.5999999999986493 0  1.1 0.6499999999987955 0  1.1 0.6999999999989417 0  1.1 0.7499999999990659 0  1.1 0.7999999999992116 0  1.1 0.8499999999993573 0  1.1 0.8999999999994526 0  1.1 0.949999999999584 0  1.1 0.9999999999997226 0  1.1 1.049999999999861 0  1.05000000000004 1.1 0  1.000000000000079 1.1 0  0.9500000000001624 1.1 0  0.9000000000003032 1.1 0  0.850000000000444 1.1 0  0.8000000000005848 1.1 0  0.7500000000007256 1.1 0  0.7000000000008665 1.1 0  0.6500000000010508 1.1 0  0.6000000000012352 1.1 0  0.5500000000014196 1.1 0  0.500000000001539 1.1 0  0.4500000000014195 1.1 0  0.4000000000013 1.1 0  0.3500000000011588 1.1 0  0.3000000000010178 1.1 0  0.2500000000008986 1.1 0  0.2000000000007579 1.1 0  0.1500000000006174 1.1 0  0.1000000000005272 1.1 0  0.05000000000040083 1.1 0  2.671196597248127e-13 1.1 0  -0.0499999999998666 1.1 0  0.253840390774058 0.4695391939895486 0  0.2590449997439266 0.440777575104521 0  0.2670005109597419 0.413561258827792 0  0.2779902055975383 0.3875582928062227 0  0.2915986451307346 0.3635516895186015 0  0.3073753669780042 0.3415332375319498 0  0.3255547006288145 0.3209162701677191 0  0.3466009657585149 0.3022617567637285 0  0.3693026726763889 0.2868695386417867 0  0.3934326590425245 0.2743159417133476 0  0.4193462416833328 0.2645955103502979 0  0.4470591688312362 0.2577075314350013 0  0.4765787618375191 0.2537824852436431 0  0.5074095984882083 0.2526968728270724 0  0.5378210718992876 0.2552121106538133 0  0.5663876794069751 0.2608852120629833 0  0.5931440700795262 0.2691502164801367 0  0.6183441946807651 0.2806746395493179 0  0.6418200251626516 0.2951491172684073 0  0.6636854411878117 0.3124519882190409 0  0.6830715203644918 0.3315156534694825 0  0.7007005969853926 0.3532257649268514 0  0.7154873652131816 0.3762884178701068 0  0.7277334216624292 0.4005372237767725 0  0.7376574636627273 0.4268991645590358 0  0.7444161993834227 0.4549918243448409 0  0.7482787311794666 0.4845841158467206 0  0.7481148894846675 0.5153486116011152 0  0.7440082859764232 0.5449468330723477 0  0.7372192671514902 0.5729776543189288 0  0.7273514152532604 0.599389743116025 0  0.7152145745521269 0.6239552200589426 0  0.7006437038954169 0.647302878387952 0  0.6832216231737057 0.669190883471415 0  0.6638439238730039 0.6884131162936046 0  0.6421347232893456 0.7055247951517027 0  0.6186144587723734 0.7198561902304299 0  0.5932889415741588 0.7312888796816381 0  0.5663951985240296 0.7394552978053142 0  0.5378159633040193 0.7450565939616729 0  0.5073846366194268 0.7475725668709331 0  0.4766715960979248 0.7464597017491563 0  0.4473990287627508 0.7423540775377954 0  0.4196811123092052 0.7350844194364839 0  0.3938840467675112 0.7251244829385388 0  0.369921166353779 0.7125116142011019 0  0.3473587896178951 0.6971741474470445 0  0.3261264280074018 0.678527271980497 0  0.3077856419475155 0.6581918633052098 0  0.2917592043764015 0.6363783480010001 0  0.2780355571129716 0.612376165724446 0  0.2669304401003015 0.5863125783241877 0  0.2589236652716319 0.5588987902930854 0  0.2537775331306741 0.5299949540783722 0  0.5013454772616505 0.6150318296305795 0  0.5070169788464789 0.3791463686699408 0  0.6293100240649727 0.4985552125470519 0  0.3648467928941959 0.4998582818368589 0  0.4102395231733026 0.4225244848026898 0  0.4073579946839315 0.5773123387808967 0  0.5789803679716219 0.4058185310359331 0  0.5785906101408086 0.5943195640650569 0  0.4380701185807088 0.6440416274957748 0  0.4859631391520068 0.6823613503435658 0  0.545579790952892 0.6806470349812385 0  0.4330491796136339 0.3520743074917347 0  0.4863390883222528 0.3160078351816997 0  0.5474840735137368 0.3191597806291187 0  0.6506129075769831 0.5881375784487469 0  0.6511105590979853 0.4122305679804033 0  0.3456816167699713 0.5761679901337339 0  0.344888063546739 0.4231158284199983 0  0.3823386286757385 0.6391634044732311 0  0.3831914422079868 0.3598332291124957 0  0.592218020377362 0.6516734630679929 0  0.5931599097195503 0.347840226630869 0  0.6895014080622807 0.5000646807719952 0  0.6900746486219025 0.5550755454137482 0  0.690063818350249 0.4457317511056588 0  0.3068231727604815 0.4537662136637328 0  0.2975373726310737 0.5059477407242382 0  0.6357009630688333 0.3673426946858884 0  0.6363001528050405 0.63368495781999 0  0.3047129982487721 0.5565084138138591 0  0.4250958145094174 0.5132792216340697 0  0.4409196892729851 0.6928714034935062 0  0.4410896354000933 0.307336707143991 0  0.3465055866717021 0.3790683670293665 0  0.3464538782864368 0.6214876495583294 0  0.5631017807545141 0.5249493252278022 0  0.5211289820708268 0.4399715042031982 0  0.5200778142279718 0.2893661599105367 0  0.5195654307559091 0.7105215378365002 0  0.4692461314596752 0.5729188607159147 0  0.4680394556326015 0.4451512480137089 0  0.39689894081626 0.670450092387339 0  0.3974958221225035 0.3298759893741837 0  0.6032959933851254 0.4571256684990967 0  0.6020715422617673 0.5414555892157692 0  0.5818951838085658 0.3150220774624894 0  0.581227063353587 0.6849127528383703 0  0.3956775491294402 0.531131727457075 0  0.3901089829698061 0.4650639345524736 0  0.4475624931882551 0.4177426002098106 0  0.7096285812560329 0.5305778798759923 0  0.7108748721900965 0.4683041573294088 0  0.5433012834363062 0.6100442980977301 0  0.5447460875476544 0.3894033173260235 0  0.6930454260726059 0.5896839550706896 0  0.6931938953192851 0.4103539342873067 0  0.4293386213176336 0.6091818673156721 0  0.3038385700267953 0.4173548506935894 0  0.4724580214579579 0.7195668078514317 0  0.4724560710132925 0.2805945301962863 0  0.4609309093162268 0.6678024930494197 0  0.4586169131288239 0.33247269657579 0  0.666517856634874 0.3753990586000142 0  0.6662841329682204 0.6248708016051336 0  0.6292424829606702 0.3344360447773642 0  0.6294746371220522 0.6660008562041031 0  0.2831628473468435 0.4710220924971001 0  0.3080291845965953 0.5870534702587058 0  0.7217908643009142 0.5000071082474268 0  0.5168992660887319 0.5648174937257402 0  0.2840160812799551 0.5361437265915809 0  0.3194783138722144 0.3905283537929092 0  0.4623908279799513 0.6056278610459069 0  0.5673236859943045 0.2900627876238652 0  0.5661979251892325 0.7101694628826342 0  0.3541723730906584 0.5368863595706049 0  0.3235835405009396 0.5254677462963679 0  0.5614554807
[...]
<PointData  Scalars="state"> 
<DataArray  type="Float64"  Name="state"  format="ascii">0.0000000000000000e+00  0.0000000000000000e+00  0.0000000000000000e+00  0.0000000000000000e+00  0.0000000000000000e+00  0.0000000000000000e+00  0.0000000000000000e+00  0.0000000000000000e+00  -1.0555237551426452e-02  1.3706196617166151e+00  0.0000000000000000e+00  0.0000000000000000e+00  0.0000000000000000e+00  0.0000000000000000e+00  0.0000000000000000e+00  0.0000000000000000e+00  0.0000000000000000e+00  0.0000000000000000e+00  0.0000000000000000e+00  0.0000000000000000e+00  0.0000000000000000e+00  0.0000000000000000e+00  0.0000000000000000e+00  0.0000000000000000e+00  0.0000000000000000e+00  0.0000000000000000e+00  0.0000000000000000e+00  0.0000000000000000e+00  0.0000000000000000e+00  0.0000000000000000e+00  0.0000000000000000e+00  0.0000000000000000e+00  0.0000000000000000e+00  0.0000000000000000e+00  0.0000000000000000e+00  0.0000000000000000e+00  0.0000000000000000e+00  0.0000000000000000e+00  0.0000000000000000e+00  0.0000000000000000e+00  0.0000000000000000e+00  0.0000000000000000e+00  0.0000000000000000e+00  0.0000000000000000e+00  0.0000000000000000e+00  0.0000000000000000e+00  0.0000000000000000e+00  0.0000000000000000e+00  0.0000000000000000e+00  0.0000000000000000e+00  0.0000000000000000e+00  0.0000000000000000e+00  0.0000000000000000e+00  0.0000000000000000e+00  0.0000000000000000e+00  0.0000000000000000e+00  0.0000000000000000e+00  0.0000000000000000e+00  0.0000000000000000e+00  0.0000000000000000e+00  0.0000000000000000e+00  0.0000000000000000e+00  0.0000000000000000e+00  0.0000000000000000e+00  0.0000000000000000e+00  0.0000000000000000e+00  0.0000000000000000e+00  0.0000000000000000e+00  0.0000000000000000e+00  0.0000000000000000e+00  0.0000000000000000e+00  0.0000000000000000e+00  0.0000000000000000e+00  0.0000000000000000e+00  0.0000000000000000e+00  0.0000000000000000e+00  0.0000000000000000e+00  0.0000000000000000e+00  0.0000000000000000e+00  0.0000000000000000e+00  0.0000000000000000e+00  0.0000000000000000e+00  0.0000000000000000e+00  0.0000000000000000e+00  0.0000000000000000e+00  0.0000000000000000e+00  0.0000000000000000e+00  0.0000000000000000e+00  0.0000000000000000e+00  0.0000000000000000e+00  0.0000000000000000e+00  0.0000000000000000e+00  0.0000000000000000e+00  0.0000000000000000e+00  0.0000000000000000e+00  0.0000000000000000e+00  0.0000000000000000e+00  0.0000000000000000e+00  0.0000000000000000e+00  0.0000000000000000e+00  0.0000000000000000e+00  0.0000000000000000e+00  0.0000000000000000e+00  0.0000000000000000e+00  0.0000000000000000e+00  0.0000000000000000e+00  0.0000000000000000e+00  0.0000000000000000e+00  0.0000000000000000e+00  0.0000000000000000e+00  0.0000000000000000e+00  0.0000000000000000e+00  0.0000000000000000e+00  0.0000000000000000e+00  0.0000000000000000e+00  0.0000000000000000e+00  0.0000000000000000e+00  0.0000000000000000e+00  0.0000000000000000e+00  0.0000000000000000e+00  0.0000000000000000e+00  0.0000000000000000e+00  0.0000000000000000e+00  0.0000000000000000e+00  0.0000000000000000e+00  0.0000000000000000e+00  0.0000000000000000e+00  0.0000000000000000e+00  0.0000000000000000e+00  0.0000000000000000e+00  0.0000000000000000e+00  0.0000000000000000e+00  0.0000000000000000e+00  0.0000000000000000e+00  0.0000000000000000e+00  0.0000000000000000e+00  0.0000000000000000e+00  0.0000000000000000e+00  0.0000000000000000e+00  0.0000000000000000e+00  0.0000000000000000e+00  0.0000000000000000e+00  0.0000000000000000e+00  0.0000000000000000e+00  0.0000000000000000e+00  0.0000000000000000e+00  0.0000000000000000e+00  0.0000000000000000e+00  0.0000000000000000e+00  0.0000000000000000e+00  0.0000000000000000e+00  0.0000000000000000e+00  0.0000000000000000e+00  0.0000000000000000e+00  0.0000000000000000e+00  0.0000000000000000e+00  0.0000000000000000e+00  0.0000000000000000e+00  0.0000000000000000e+00  0.0000000000000000e+00  0.0000000000000000e+00  0.0000000000000000e+00  0.0000000000000000e+00  0.0000000000000000e+00  0.0000000000000000e+00  0.0000000000000000e+00  0.0000000000000000e+00  0.0000000000000000e+00  0.0000000000000000e+00  0.0000000000000000e+00  0.0000000000000000e+00  0.0000000000000000e+00  0.0000000000000000e+00  0.0000000000000000e+00  0.0000000000000000e+00  0.0000000000000000e+00  0.0000000000000000e+00  0.0000000000000000e+00  -8.4164204831806370e-03  -9.1355852619306056e-03  -5.4961756523849957e-03  -5.8938153697264154e-03  -6.2957188188700651e-03  -8.2155899704296660e-03  -1.4756126370416235e-03  -5.5283706546388556e-03  -9.1438530238204391e-03  -8.7930042953693732e-03  -9.0460835451964296e-03  -8.0333529690722431e-03  -9.5000593448812606e-03  -8.7783018910670384e-03  -8.9907416945789083e-03  -9.1141535257063654e-03  -6.8217513717881081e-03  -8.2321953777924860e-03  -3.8414012983820985e-03  -6.3782109013721189e-03  -7.7067966968677581e-03  -3.1295692769905794e-03  -7.7276498318567428e-03  -8.5260535231923961e-03  -7.7040373159724283e-03  -9.9344399955328937e-03  -8.1088510861223387e-03  -8.0002155537832968e-03  -9.8162354022655988e-03  -7.4974684877901314e-03  -8.3575423213804786e-03  -7.5785884414740256e-03  -3.2202211672337361e-03  -7.9557763788266726e-03  -6.7451813228094912e-03  -4.0062620536557760e-03  -8.3655697110440064e-03  -6.8645726872468161e-03  -9.1317146649659026e-03  -9.0123019287626158e-03  -8.9238093541402826e-03  -9.6366112565387674e-03  -8.1049658496922892e-03  -8.9093449282264883e-03  -8.6908349057766530e-03  -9.1497770797475120e-03  -5.4982944807358382e-03  -1.6737083866988751e-03  -8.4269631967857153e-03  -6.8380600148680469e-03  -3.6649170126063705e-03  -8.4577372158972826e-03  -9.1161539606070627e-03  -8.0839268235630892e-03  9.2614407612678695e-01  8.8773566608594900e-01  8.5045654778223190e-01  8.1756393577134767e-01  9.0941744138434666e-01  8.9320413093897322e-01  8.6932597895920605e-01  8.7019068109597209e-01  5.3228980657752512e-01  1.8623822386597133e-01  1.5160476258527208e-01  4.5662713916086883e-01  1.6989180299984608e-01  1.4544938337199692e-01  2.4100049168627607e-01  2.3665915124036291e-01  2.7369992804545185e-01  2.6319771722287033e-01  1.7916308114411630e-01  1.7995977392602325e-01  2.1588004334695046e-01  2.0408196664675060e-01  1.3980429019702040e-01  1.0933845286257315e-01  1.0982459702512221e-01  1.0910000508747832e-01  8.4795498895508817e-02  1.2349202100178845e-01  1.1844112834490010e-01  8.7930141680607032e-02  1.1665542161382674e+00  9.2693499237118240e-02  9.2471949441212495e-02  1.1542059290521262e-01  1.1145451715370254e-01  1.2196867128521656e+00  1.2329728140314837e+00  6.5143060882753651e-02  6.6475147691739955e-02  1.1476980714784741e+00  1.2316710556425889e+00  8.4232675307057581e-02  9.3693248692990505e-02  9.2941306032859328e-01  9.4009073609025173e-01  8.0460612453813113e-02  8.2265870445922581e-02  9.4794389514105448e-01  9.0583788471149262e-01  1.0213046236535590e+00  6.8448482523173232e-02  6.4153951323161013e-02  9.1153707820008090e-01  9.0768262884936290e-01  6.6156045875444616e-02  6.5959155557739221e-02  8.4871581904238269e-01  6.5280314029872430e-02  5.8372368032699302e-02  5.8440189114394234e-02  2.8147225528861330e-01  2.9453650387962710e-01  7.7316155249115753e-02  7.7914468695471528e-02  7.6420517944241220e-02  7.5544656790750425e-02  6.2078965705194361e-02  6.5172116179277040e-02  5.5526521096303717e-02  1.2198514161811582e+00  5.6397026789650605e-02  6.4118050397714482e-02  9.3499444177019198e-01  5.8376201773680608e-02  5.9162575822846189e-02  6.5447412178268449e-01  2.1666746284282221e-01  4.3789595286429445e-01  4.5141337197807568e-01  6.2771296079942163e-01  6.4686910581649693e-01  6.0889466057313690e-01  6.2850861281228210e-01  6.2673091468684683e-01  6.4923598982099007e-01  6.4140656326670709e-01  7.2119161278061772e-01  4.4462636286893792e-01  6.8406675544146700e-02  6.1313972132580198e-02  6.1934621208200258e-02  6.9300332677449916e-01  5.3905000172474882e-01  6.1452726642145503e-02  6.2192391777900612e-02  1.2039585556057546e+00  5.6776722096008125e-01  5.5278137214339074e-01  8.2087124673225076e-01  5.6322344740990619e-02  5.5820699694430001e-02  2.9238118470360230e-01  6.7178132235739887e-02  6.3362454363711046e-02  5.4187019084216075e-02  5.3507529961870248e-02  3.8306985380811470e-01  1.8400282354646946e-01  1.8289070116653733e-01  4.7904269564847515e-02  5.2547012889964606e-02  5.1202772314517225e-02  5.0767201408901855e-02  5.3133761256382271e-02  5.3413298611057605e-02  5.7150175302836503e-02  5.7992318805303693e-02  3.8081564972931042e-01  2.2371300561295224e-01  2.1789852019111267e-01  9.9770257066845047e-01  3.4139286057950358e-01  3.3483069035881430e-01  1.9795272688395082e-01  1.1284905500310505e+00  5.6542613365894934e-01  5.7687748049981635e-01  8.7117243003388711e-01  5.3829765482375658e-01  5.4512671721748884e-01  5.0056554101754407e-02  5.0034146341065809e-02  4.7368160387334657e-02  4.3564417705080814e-02  4.3729021957411157e-02  2.0696955660716834e-01  1.0830983253734294e+00  1.5514794944576216e-01  1.8198393661098242e-01  9.7750574029575030e-02  9.9470931374106106e-02  5.6942886124748633e-02  6.6077385842995207e-01  4.7212747471545080e-02  4.6798882925126260e-02  1.4108553208484684e-01  1.4439014942062253e-01  1.0683117823483681e+00  9.9522153042078387e-01  4.4267774337101044e-02  4.4577071419252649e-02  6.5803928158306002e-01  1.0748906402585507e+00  1.1056822170804008e+00  9.1899526002034715e-02  9.1536180981673723e-02  4.2356425100209510e-01  4.3694979477366044e-02  1.1836984088502583e-01  7.3281098649868526e-01  7.4292935550749395e-01  5.6701920004886462e-02  1.2778217525949835e+00  4.6363492343581315e-02  4.6347887478432104e-02  2.0826563521861663e-01  2.0892935978959645e-01  9.0984251832405938e-02  9.1892832214126960e-02  1.0503619372071173e+00  2.2415240639198028e-01  2.2463503725521350e-01  7.9980888781912030e-01  4.6601021130945462e-02  4.6761928017138708e-02  4.8793305543242196e-02  4.9762263209166657e-02  4.5740702431463054e-02  4.5979304161344207e-02  7.8614514295489124e-01  8.6298587060371890e-01  1.8918132993004641e-01  1.9717255087196367e-01  4.9279822754056790e-02  1.0532921876953518e+00  7.9412486864985266e-01  8.7593904809392209e-01  2.1207491192122524e-01  7.7760894884896803e-01  7.8307400257310245e-01  1.2750380821295890e+00  2.8883478894058023e-01  2.6496856332906366e-01  5.0819504923008664e-02  5.1364847727356902e-02  5.3075790981552948e-02  -2.7051474417839075e-02  -2.7045376152934744e-02  -2.7167760276901928e-02  -2.7154832396138230e-02  -2.4465349791666337e-02  -2.4427922321512297e-02  -2.5019432939915810e-02  -2.5035109167007841e-02  -2.5182848806001620e-02  -2.5195384018247342e-02  -2.5585205802976428e-02  -2.5599394437808207e-02  -2.2506650161143074e-02  -2.2506595565274255e-02  -2.2280332528584010e-02  -2.2513401924489633e-02  -2.6509102052884367e-02  -2.6523836408820486e-02  -2.6294374481886665e-02  -2.6277094844165318e-02  -2.5492359280005285e-02  -2.5491188587057057e-02  -2.5471987392435169e-02  -2.5465188532292092e-02  -2.3338702711487195e-02  -2.3347163560844323e-02  -2.3081111038805214e-02  -2.3621770948856081e-02  -2.3075297440270134e-02  -2.3610546205978675e-02  -2.3773628846112570e-02  -2.3759057755374655e-02  -2.2204299121572939e-02  -1.9161269889308455e-02  -2.2192776857321551e-02  -1.9155327189231488e-02  -2.3873720646926461e-02  -2.3880109800156198e-02  -1.8589618814525130e-02  -1.8591561727600670e-02  -2.3599713686627631e-02  -2.3550378517739598e-02  -2.1606342600084465e-02  -2.1596082125405539e-02  -2.2718633081243788e-02  -2.2012478259825840e-02  -2.1996290274203037e-02  -2.2703602896045172e-02  -2.2719326453670453e-02  -2.1777833898863844e-02  -2.1777507756758092e-02  -2.1585864868302409e-02  -2.1598764711836790e-02  -2.2559168609167912e-02  -1.8313418852247691e-02  -1.9682407956554349e-02  -1.8096988630736298e-02  -1.8103324166651325e-02  -1.7808005879442913e-02  -1.7383073317661469e-02  -2.6679060225896927e-02  -2.6687263130485205e-02  -2.7225324956074139e-02  -2.7228661520944650e-02  -2.3242273081480344e-02  -2.2931550826320982e-02  -2.3290697059257532e-02  -2.2987705719848310e-02  -2.6877808441974266e-02  -2.6864357785041919e-02  -2.7517285687293440e-02  -2.7531900599392010e-02  -2.3774519279244347e-02  -2.3753252028641546e-02  -1.7726593977710037e-02  -1.7787909083519841e-02  -1.7189682666260628e-02  -1.7166877798585219e-02  -2.2854058812177371e-02  -2.2850547145452517e-02  -1.7346352888325783e-02  -1.7328893595086037e-02  -2.2596879900088105e-02  -2.2630485579255462e-02  -2.1269038601576015e-02  -2.3229716742918946e-02  -2.1244761348895053e-02  -2.3226598235051701e-02  -2.1601309295921464e-02  -2.1613003133416089e-02  -2.1266434215265806e-02  -2.1249902940913504e-02  -2.0191736083077554e-02  -2.0268839340736370e-02  -2.1298160151689650e-02  -2.1245202673470302e-02  -2.3322264539475765e-02  -2.3328868814559180e-02  -2.3664776491863739e-02  -2.3674250171527782e-02  -2.0566923590480971e-02  -2.0603382199946323e-02  -2.3757841159677030e-02  -2.3747584138702021e-02  -2.0289967550465176e-02  -2.0277830263466745e-02  -2.5729350898645611e-02  -2.5737161016640784e-02  -2.1465242867276312e-02  -2.1482415224863070e-02  -2.0712787578847043e-02  -2.0704001710581864e-02  -1.5483664772232430e-02  -1.5489962844811973e-02  -2.6010285030222974e-02  -2.6027348111801043e-02  -2.0398481182657361e-02  -2.0343143182149370e-02  -1.5852169353195160e-02  -1.5846828046222228e-02  -1.5268039572685436e-02  -1.5261321697222760e-02  -1.4432613295695703e-02  -2.4253179041499786e-02  -2.4244162872487804e-02  -2.3629977550273750e-02  -2.3640497448465015e-02  -2.3918999817720762e-02  -2.3964608586669153e-02  -2.3348062234867292e-02  -2.3347084317880885e-02  -2.6960610943205704e-02  -2.6968227445933555e-02  -2.7027905449861733e-02  -2.7033387779311767e-02  -2.0485687139321838e-02  -2.0435182223431100e-02  -2.3149095796833739e-02  -2.3226950513093307e-02  -2.0429864963283705e-02  -2.0386776241884983e-02  -1.5133246648675585e-02  -1.4889346265086227e-02  -1.4882043753065151e-02  -8.6958034161163360e-03  -8.6940262925437797e-03  -8.5899803954302655e-03  -8.5895790543239568e-03  -1.3964657372773460e-02  -1.3962471308070917e-02  -2.5198510599610164e-02  -2.5184105768964311e-02  -2.5465042087544590e-02  -2.5463200874767045e-02  -2.5075399276187772e-02  -2.5089077121570859e-02  -2.7747235311039793e-02  -2.7731428711645845e-02  -2.4810069977511950e-02  -2.4802705992943593e-02  -2.7757263013714624e-02  -2.7763768770582897e-02  -2.0044544830537626e-02  -2.0054849570828183e-02  -1.7004553357720293e-02  -1.7003976751166456e-02  -1.8994186093419203e-02  -1.9154898868044792e-02  -1.9282005832376797e-02  -2.2409504409526677e-02  -2.2141956908211163e-02  -1.4145686931592809e-02  -1.4139015473516949e-02  -2.5773588269827188e-02  -2.5775930515097051e-02  -2.4187518774386161e-02  -2.4169681186698343e-02  -2.4715296264120393e-02  -2.4722783889030958e-02  -2.3960135716564048e-02  -2.3961303957373472e-02  -1.8691042736105039e-02  -1.8805078782365557e-02  -2.2925082508241712e-02  -2.2931052032805821e-02  -2.3057096644118685e-02  -2.3206536372028800e-02  -1.6148324336396534e-02  -1.6097860954180834e-02  -1.6086286055482388e-02  -2.6048257902898209e-02  -2.6033753844941103e-02  -1.6889690189387841e-02  -1.6834289160168957e-02  -1.5319864816012720e-02  -1.5318938517417627e-02  -2.0648486561486722e-02  -2.5212941722672834e-02  -2.5220846244309689e-02  -1.5180714013732359e-02  -1.5188425650403466e-02  -1.8531820950213416e-02  -2.4094454149283996e-02  -1.8508222289872898e-02  -2.4093463374873853e-02  -1.4222049328253843e-02  -1.4211623564454290e-02  -2.2882266494215323e-02  -2.2893395901548066e-02  -2.3199566842789052e-02  -2.3216173279016320e-02  -2.0116308455547030e-02  -2.0153510661525167e-02  -2.5722202252681479e-02  -2.5736164758432989e-02  -1.7953168940100669e-02  -2.3794663346823539e-02  -1.8029076385501108e-02  -2.3821198291938971e-02  -2.2546234911272531e-02  -2.2550486117501899e-02  -1.5856864066230478e-02  -1.5883584087166430e-02  -1.6089308238689697e-02  -1.6083227774673664e-02  -1.3335043422762332e-02  -1.3336117132666988e-02  -2.3442001279343844e-02  -2.3430788247285200e-02  -2.3943706054352337e-02  -2.3918962519874399e-02  -2.3850126924455824e-02  -2.3860353645703405e-02  -1.5242286411300800e-02  -1.5231146477303609e-02  -2.4869841784412990e-02  -2.4883939283677776e-02  -2.6830017542022164e-02  -2.6833504277365233e-02  -2.5186766862422823e-02  -2.5193999194292795e-02  -1.9821125782200896e-02  -1.9859677910436351e-02  -2.6177762435111142e-02  -2.6193470702592533e-02  -2.7073800409811697e-02  -2.7057885755838666e-02  -1.9287315097938226e-02  -1.9393378758155055e-02  -1.9656173360740648e-02  -1.9594947619365453e-02  -2.2754424572205251e-02  -2.2772107283553875e-02  -1.2968191944287723e-02  -1.2970726735529996e-02  -1.9411300541607387e-02  -1.9285750066555633e-02  -2.5258121327987874e-02  -2.4811589111975788e-02  -2.5229666185773186e-02  -2.4785169418770413e-02  -2.6931671020805088e-02  -2.6924933696655981e-02  -2.7765828929056595e-02  -2.7768360577979198e-02  -1.8065235203154392e-02  -1.8262319684453982e-02  -2.1882401478770398e-02  -2.1890425348150295e-02  -2.6373394717202219e-02  -2.6378356861948369e-02  -2.7898385901410756e-02  -2.7884176588124993e-02  -2.4226249801023274e-02  -2.4212301996891991e-02  -2.3966332996087792e-02  -2.4009074298539268e-02  -2.0069531900705172e-02  -1.5512958123520274e-02  -1.5515173089750409e-02  -2.0918149153197070e-02  -1.5865012314792638e-02  -1.5965553904584952e-02  -1.5983436615579622e-02  -1.4916470801688644e-02  -1.2511216411640633e-02  -1.2510757316984498e-02  -1.9171472617870663e-02  -1.9031705937537887e-02  -1.2804762084292974e-02  -1.2802651079477647e-02  -1.4222184926644640e-02  -1.5808781073470494e-02  -1.5822467545615632e-02  -1.9204054012046268e-02  -1.9221750224462056e-02  -1.4123598846768892e-02  -1.4119222840387661e-02  -2.3272792130074653e-02  -2.3237921542632111e-02  -2.3829223245427404e-02  -2.3830536089023489e-02  -2.6986897468786818e-02  -2.6970900504369864e-02  -2.3427405119724118e-02  -2.3434820630366674e-02  -2.3128545500302980e-02  -2.6304400948576872e-02  -2.6316938918453769e-02  -2.4767457204904777e-02  -2.4771009969802506e-02  -2.2983586322742770e-02  -1.8509251045150471e-02  -1.8364725115405579e-02  -2.5785591095177331e-02  -2.5796805495920800e-02  -1.8867545554613903e-02  -1.9042087841509060e-02  -1.4414795312636758e-02  -1.4414918157772611e-02  -1.8755129893700200e-02  -1.8652487557985840e-02  -1.4416529021502087e-02  -1.4446085426552286e-02  -1.8084259849659046e-02  -1.8570117964863932e-02  -2.3124959874111704e-02  -1.3995114241506080e-02  -2.2052867610762993e-02  -2.2065829878060023e-02  -2.1053157823785997e-02  -2.1046396988627543e-02  -2.2257134877185360e-02  -2.2260286988736951e-02  -2.2069746547423056e-02  -2.3628198659029556e-02  -2.2063579612092356e-02  -2.3602996438965001e-02  -2.6668958935753939e-02  -2.6683248498900216e-02  -2.5101601587555759e-02  -2.5090906838330061e-02  -2.3949030320838713e-02  -2.3955909335030504e-02  -2.2439053295184107e-02  -2.2412314459995704e-02  -2.5429532994113289e-02  -2.5454402502431056e-02  -2.6199375824643149e-02  -2.6195992810685985e-02  -2.3782706554438610e-02  -2.3794180108476327e-02  -2.0257946555139177e-02  -2.0244375316981766e-02  -2.1373042708961735e-02  -2.1363834931665271e-02  -2.1609815532481629e-02  -2.1599591791885288e-02  -2.5049964803542511e-02  -2.5056608167324867e-02  -1.8823955497579325e-02  -1.8779135976381041e-02  -1.8564969533006979e-02  -1.8382092780777355e-02  -2.4259871183753962e-02  -2.4295464752602993e-02  -2.3355140997307594e-02  -2.3365940971471325e-02  -1.3674598080846419e-02  -1.3679834625263426e-02  -2.1438323646123920e-02  -2.1466941801524583e-02  -2.1741279110253687e-02  -2.1652850349759809e-02  -2.3359975874178249e-02  -2.3379135298055690e-02  -1.8927156877585009e-02  -1.9022656567989810e-02  -2.0420541785492626e-02  -2.0400443864423225e-02  -2.4052037136122993e-02  -2.4039369272005676e-02  -2.4872260923771136e-02  -2.48556062