<?xml version="1.0"?>
<VTKFile type="UnstructuredGrid"  version="0.1"  >
<UnstructuredGrid>
<Piece  NumberOfPoints="1286" NumberOfCells="2474">
<Points>
<DataArray  type="Float64"  NumberOfComponents="3"  format="ascii">0 0 0  0 1 0  1 1 0  1 0 0  1.1 -0.1 0  -0.1 -0.1 0  1.1 1.1 0  -0.1 1.1 0  0.2481792426912391 0.499911622028503 0  0.4996885964321521 0.4999634136662661 0  0 0.9499999999997918 0  0 0.8999999999995836 0  0 0.8499999999996529 0  0 0.7999999999999998 0  0 0.7500000000003466 0  0 0.7000000000006934 0  0 0.6500000000010401 0  0 0.6000000000013869 0  0 0.5500000000017335 0  0 0.5000000000020587 0  0 0.4500000000018723 0  0 0.4000000000016644 0  0 0.3500000000014564 0  0 0.3000000000012483 0  0 0.2500000000010403 0  0 0.2000000000008322 0  0 0.1500000000006241 0  0 0.100000000000416 0  0 0.05000000000020799 0  0.04999999999989965 0 0  0.09999999999981467 0 0  0.1499999999997036 0 0  0.1999999999995579 0 0  0.2499999999994121 0 0  0.2999999999992664 0 0  0.3499999999991206 0 0  0.3999999999989749 0 0  0.4499999999988292 0 0  0.4999999999986943 0 0  0.5499999999988151 0 0  0.5999999999989468 0 0  0.6499999999990784 0 0  0.69999999999921 0 0  0.7499999999993417 0 0  0.7999999999994734 0 0  0.8499999999996051 0 0  0.8999999999997368 0 0  0.9499999999998684 0 0  1 0.04999999999989965 0  1 0.09999999999981467 0  1 0.1499999999997036 0  1 0.1999999999995579 0  1 0.2499999999994121 0  1 0.2999999999992664 0  1 0.3499999999991206 0  1 0.3999999999989749 0  1 0.4499999999988292 0  1 0.4999999999986943 0  1 0.5499999999988151 0  1 0.5999999999989468 0  1 0.6499999999990784 0  1 0.69999999999921 0  1 0.7499999999993417 0  1 0.7999999999994734 0  1 0.8499999999996051 0  1 0.8999999999997368 0  1 0.9499999999998684 0  0.9499999999997918 1 0  0.8999999999995836 1 0  0.8499999999996529 1 0  0.7999999999999998 1 0  0.7500000000003466 1 0  0.7000000000006934 1 0  0.6500000000010401 1 0  0.6000000000013869 1 0  0.5500000000017335 1 0  0.5000000000020587 1 0  0.4500000000018723 1 0  0.4000000000016644 1 0  0.3500000000014564 1 0  0.3000000000012483 1 0  0.2500000000010403 1 0  0.2000000000008322 1 0  0.1500000000006241 1 0  0.100000000000416 1 0  0.05000000000020799 1 0  -0.1 1.05000000000004 0  -0.1 1.000000000000079 0  -0.1 0.9500000000001624 0  -0.1 0.9000000000003032 0  -0.1 0.850000000000444 0  -0.1 0.8000000000005848 0  -0.1 0.7500000000007256 0  -0.1 0.7000000000008665 0  -0.1 0.6500000000010508 0  -0.1 0.6000000000012352 0  -0.1 0.5500000000014196 0  -0.1 0.500000000001539 0  -0.1 0.4500000000014195 0  -0.1 0.4000000000013 0  -0.1 0.3500000000011588 0  -0.1 0.3000000000010178 0  -0.1 0.2500000000008986 0  -0.1 0.2000000000007579 0  -0.1 0.1500000000006174 0  -0.1 0.1000000000005272 0  -0.1 0.05000000000040083 0  -0.1 2.671196597248127e-13 0  -0.1 -0.0499999999998666 0  -0.0500000000000906 -0.1 0  -1.730560139634463e-13 -0.1 0  0.04999999999975802 -0.1 0  0.09999999999961506 -0.1 0  0.1499999999994613 -0.1 0  0.199999999999302 -0.1 0  0.2499999999991446 -0.1 0  0.2999999999990088 -0.1 0  0.3499999999988296 -0.1 0  0.3999999999986936 -0.1 0  0.4499999999985143 -0.1 0  0.4999999999984002 -0.1 0  0.5499999999985247 -0.1 0  0.5999999999986493 -0.1 0  0.6499999999987955 -0.1 0  0.6999999999989417 -0.1 0  0.7499999999990659 -0.1 0  0.7999999999992116 -0.1 0  0.8499999999993573 -0.1 0  0.8999999999994526 -0.1 0  0.949999999999584 -0.1 0  0.9999999999997226 -0.1 0  1.049999999999861 -0.1 0  1.1 -0.0500000000000906 0  1.1 -1.730560139634463e-13 0  1.1 0.04999999999975802 0  1.1 0.09999999999961506 0  1.1 0.1499999999994613 0  1.1 0.199999999999302 0  1.1 0.2499999999991446 0  1.1 0.2999999999990088 0  1.1 0.3499999999988296 0  1.1 0.3999999999986936 0  1.1 0.4499999999985143 0  1.1 0.4999999999984002 0  1.1 0.5499999999985247 0  1.1 0.5999999999986493 0  1.1 0.6499999999987955 0  1.1 0.6999999999989417 0  1.1 0.7499999999990659 0  1.1 0.7999999999992116 0  1.1 0.8499999999993573 0  1.1 0.8999999999994526 0  1.1 0.949999999999584 0  1.1 0.9999999999997226 0  1.1 1.049999999999861 0  1.05000000000004 1.1 0  1.000000000000079 1.1 0  0.9500000000001624 1.1 0  0.9000000000003032 1.1 0  0.850000000000444 1.1 0  0.8000000000005848 1.1 0  0.7500000000007256 1.1 0  0.7000000000008665 1.1 0  0.6500000000010508 1.1 0  0.6000000000012352 1.1 0  0.5500000000014196 1.1 0  0.500000000001539 1.1 0  0.4500000000014195 1.1 0  0.4000000000013 1.1 0  0.3500000000011588 1.1 0  0.3000000000010178 1.1 0  0.2500000000008986 1.1 0  0.2000000000007579 1.1 0  0.1500000000006174 1.1 0  0.1000000000005272 1.1 0  0.05000000000040083 1.1 0  2.671196597248127e-13 1.1 0  -0.0499999999998666 1.1 0  0.2506713698630205 0.4695986381801516 0  0.257512814718419 0.4409461797682958 0  0.265771604429368 0.4135893541740761 0  0.2766075081844123 0.387391199288962 0  0.2902739492409758 0.3633125362678971 0  0.3065572241564799 0.3415720278150448 0  0.3242634900411175 0.3203571644807041 0  0.3457072956457339 0.3018894036493304 0  0.3694592557424827 0.2877401559776071 0  0.3939460665984647 0.275116538716522 0  0.42002691204167 0.2646275800491401 0  0.4475941359464806 0.2561754969769487 0  0.4769075426330989 0.2505891044852526 0  0.5075750169041073 0.2485805006975431 0  0.5377436958307219 0.2526070978219937 0  0.5660795326943023 0.2602644292637738 0  0.593165888115878 0.2686883205237183 0  0.6186844583763881 0.2801801807238335 0  0.6427375979083909 0.294005163744099 0  0.6648250287387978 0.311195244286399 0  0.6843256142464822 0.3301883001195239 0  0.7016727837702728 0.3521901870932537 0  0.7148837503534379 0.3762898666918076 0  0.7269786354872997 0.4008946585635002 0  0.7380514919019739 0.427107808245437 0  0.7458642312840725 0.455168450892466 0  0.7518383282602972 0.4845935624044939 0  0.7518301697989659 0.5155286391280007 0  0.7458659910697778 0.544938981608648 0  0.7381248791344083 0.5729725819114044 0  0.7270990750235738 0.5992048830925809 0  0.714980298035069 0.6239486567480828 0  0.7017137487258703 0.6481115838258058 0  0.6843346552546776 0.6701051103652125 0  0.6646799529696331 0.6891280403882603 0  0.6427501510118416 0.7061501516513317 0  0.6187521711122117 0.7199920121303368 0  0.5932073373753691 0.731523899299216 0  0.5660775595335886 0.7400207516795599 0  0.5377564208224038 0.7476859841094182 0  0.5076190790027229 0.7516873906925384 0  0.4769918146247178 0.7496077246580184 0  0.4477449676652893 0.7438474304161762 0  0.4201683956938616 0.7351564503484531 0  0.3941917913873611 0.724611007356515 0  0.3698778503988306 0.7120088641662209 0  0.3462720519433777 0.6980424687889133 0  0.3248542237502661 0.6795258460374132 0  0.3074231085285225 0.658309486481491 0  0.2911576913902595 0.6364842119505673 0  0.2773778143638936 0.6123416538440474 0  0.2660462386143332 0.586275800264851 0  0.2576033033857281 0.5588944204252684 0  0.2506835528993228 0.530213841262077 0  0.5013990663930176 0.6151847848902022 0  0.5070824720689262 0.3789591607409674 0  0.6295531160625689 0.4985636241048755 0  0.3644852025048522 0.4999103633037331 0  0.4101076728692909 0.4225723663462531 0  0.4072534079781755 0.5773462520773022 0  0.5790787861813149 0.4056941290098039 0  0.5786917429316472 0.5944149824789617 0  0.4380706024488561 0.6442884007898929 0  0.4860729630930044 0.6832212366013474 0  0.5456302899870367 0.6813280504537692 0  0.4330485035734725 0.3518842923212144 0  0.486480120468274 0.3151111058377386 0  0.5475658213372908 0.3184173080255603 0  0.6509200523013716 0.5882422082162545 0  0.6513495081612555 0.4120857238373024 0  0.3452391438840017 0.5762008254863414 0  0.3443097352706359 0.423189349771291 0  0.3820825433152621 0.6393324475359873 0  0.3828994659027217 0.3598095607786889 0  0.5923730994201635 0.6519710656161845 0  0.5933574211673718 0.3474194037839657 0  0.6905120859020072 0.5001041842536821 0  0.6907906741412204 0.5551039879487237 0  0.6906189209672597 0.4457671359686692 0  0.3056295709391077 0.4538555641291191 0  0.2958829217451565 0.5060405465100106 0  0.6360446801122769 0.3669064726815277 0  0.6366398044485577 0.6339748896962953 0  0.3037060095359019 0.5565451298036284 0  0.4250710880700596 0.5133040464618048 0  0.4410612411326871 0.6934649076303299 0  0.4413050863455893 0.306803404518674 0  0.3458823248788683 0.379039714393382 0  0.3460137664302758 0.6216396080939255 0  0.5631659274452684 0.5249508874985503 0  0.5211886413102749 0.4399746504863675 0  0.5201606339880351 0.2876580355970656 0  0.5196404866488474 0.7121968451430633 0  0.469287726727653 0.572942187331411 0  0.468080680921529 0.4451862299135625 0  0.3967638883201402 0.6706327376820796 0  0.3974073609662718 0.3298641806769418 0  0.6034096359807632 0.4571081202247176 0  0.6021945641818847 0.5414691336489759 0  0.582058922804497 0.3144020491243303 0  0.5813208227239043 0.6853830364722318 0  0.3955385870387141 0.5311504412110604 0  0.3899043865739941 0.4651370424199691 0  0.447562242453955 0.4177671899825146 0  0.7110719184044615 0.5306195336031336 0  0.7121705548646454 0.4683756049760924 0  0.5433628401414596 0.6101797014713546 0  0.5448148516484145 0.3892489042786171 0  0.6934379523057883 0.5897579987026835 0  0.6933546491124714 0.4103046078207572 0  0.4292971699851573 0.6092921014333895 0  0.3027730862450408 0.4173760642315425 0  0.4726805341627233 0.7213496981128934 0  0.4727282879673118 0.2788009346918723 0  0.4610147488791136 0.6682903301032187 0  0.4587252877599201 0.3320331434556243 0  0.6668874437837335 0.3749466458247949 0  0.6667173069564879 0.6251844271620792 0  0.6297606723506689 0.3337363571693789 0  0.6298851413248097 0.6664363414566581 0  0.2811362301983439 0.4711212486064166 0  0.307304928586396 0.5870908899644049 0  0.7238654161964625 0.5000758489623104 0  0.5169559004142774 0.5648295817454252 0  0.2822828779390282 0.5362261285935613 0  0.3185824897971383 0.3904965673724495 0  0.4624195131498721 0.6057386910884129 0  0.5673450246923059 0.2891976954223073 0  0.5661696603046432 0.7109434912253862 0  0.3537310740770896 0.5369139003129347 0  0.3227181788192158 0.5255167152961894 0  0.56156492780657
[...]
<PointData  Scalars="state"> 
<DataArray  type="Float64"  Name="state"  format="ascii">0.0000000000000000e+00  0.0000000000000000e+00  0.0000000000000000e+00  0.0000000000000000e+00  0.0000000000000000e+00  0.0000000000000000e+00  0.0000000000000000e+00  0.0000000000000000e+00  -1.0864347771048251e-02  1.3872491354266137e+00  0.0000000000000000e+00  0.0000000000000000e+00  0.0000000000000000e+00  0.0000000000000000e+00  0.0000000000000000e+00  0.0000000000000000e+00  0.0000000000000000e+00  0.0000000000000000e+00  0.0000000000000000e+00  0.0000000000000000e+00  0.0000000000000000e+00  0.0000000000000000e+00  0.0000000000000000e+00  0.0000000000000000e+00  0.0000000000000000e+00  0.0000000000000000e+00  0.0000000000000000e+00  0.0000000000000000e+00  0.0000000000000000e+00  0.0000000000000000e+00  0.0000000000000000e+00  0.0000000000000000e+00  0.0000000000000000e+00  0.0000000000000000e+00  0.0000000000000000e+00  0.0000000000000000e+00  0.0000000000000000e+00  0.0000000000000000e+00  0.0000000000000000e+00  0.0000000000000000e+00  0.0000000000000000e+00  0.0000000000000000e+00  0.0000000000000000e+00  0.0000000000000000e+00  0.0000000000000000e+00  0.0000000000000000e+00  0.0000000000000000e+00  0.0000000000000000e+00  0.0000000000000000e+00  0.0000000000000000e+00  0.0000000000000000e+00  0.0000000000000000e+00  0.0000000000000000e+00  0.0000000000000000e+00  0.0000000000000000e+00  0.0000000000000000e+00  0.0000000000000000e+00  0.0000000000000000e+00  0.0000000000000000e+00  0.0000000000000000e+00  0.0000000000000000e+00  0.0000000000000000e+00  0.0000000000000000e+00  0.0000000000000000e+00  0.0000000000000000e+00  0.0000000000000000e+00  0.0000000000000000e+00  0.0000000000000000e+00  0.0000000000000000e+00  0.0000000000000000e+00  0.0000000000000000e+00  0.0000000000000000e+00  0.0000000000000000e+00  0.0000000000000000e+00  0.0000000000000000e+00  0.0000000000000000e+00  0.0000000000000000e+00  0.0000000000000000e+00  0.0000000000000000e+00  0.0000000000000000e+00  0.0000000000000000e+00  0.0000000000000000e+00  0.0000000000000000e+00  0.0000000000000000e+00  0.0000000000000000e+00  0.0000000000000000e+00  0.0000000000000000e+00  0.0000000000000000e+00  0.0000000000000000e+00  0.0000000000000000e+00  0.0000000000000000e+00  0.0000000000000000e+00  0.0000000000000000e+00  0.0000000000000000e+00  0.0000000000000000e+00  0.0000000000000000e+00  0.0000000000000000e+00  0.0000000000000000e+00  0.0000000000000000e+00  0.0000000000000000e+00  0.0000000000000000e+00  0.0000000000000000e+00  0.0000000000000000e+00  0.0000000000000000e+00  0.0000000000000000e+00  0.0000000000000000e+00  0.0000000000000000e+00  0.0000000000000000e+00  0.0000000000000000e+00  0.0000000000000000e+00  0.0000000000000000e+00  0.0000000000000000e+00  0.0000000000000000e+00  0.0000000000000000e+00  0.0000000000000000e+00  0.0000000000000000e+00  0.0000000000000000e+00  0.0000000000000000e+00  0.0000000000000000e+00  0.0000000000000000e+00  0.0000000000000000e+00  0.0000000000000000e+00  0.0000000000000000e+00  0.0000000000000000e+00  0.0000000000000000e+00  0.0000000000000000e+00  0.0000000000000000e+00  0.0000000000000000e+00  0.0000000000000000e+00  0.0000000000000000e+00  0.0000000000000000e+00  0.0000000000000000e+00  0.0000000000000000e+00  0.0000000000000000e+00  0.0000000000000000e+00  0.0000000000000000e+00  0.0000000000000000e+00  0.0000000000000000e+00  0.0000000000000000e+00  0.0000000000000000e+00  0.0000000000000000e+00  0.0000000000000000e+00  0.0000000000000000e+00  0.0000000000000000e+00  0.0000000000000000e+00  0.0000000000000000e+00  0.0000000000000000e+00  0.0000000000000000e+00  0.0000000000000000e+00  0.0000000000000000e+00  0.0000000000000000e+00  0.0000000000000000e+00  0.0000000000000000e+00  0.0000000000000000e+00  0.0000000000000000e+00  0.0000000000000000e+00  0.0000000000000000e+00  0.0000000000000000e+00  0.0000000000000000e+00  0.0000000000000000e+00  0.0000000000000000e+00  0.0000000000000000e+00  0.0000000000000000e+00  0.0000000000000000e+00  0.0000000000000000e+00  0.0000000000000000e+00  0.0000000000000000e+00  0.0000000000000000e+00  0.0000000000000000e+00  0.0000000000000000e+00  0.0000000000000000e+00  0.0000000000000000e+00  0.0000000000000000e+00  0.0000000000000000e+00  0.0000000000000000e+00  0.0000000000000000e+00  0.0000000000000000e+00  0.0000000000000000e+00  -8.3992500175860425e-03  -8.4169285187277419e-03  -4.7170605245789197e-03  -5.2415863457327058e-03  -5.7857395498601312e-03  -7.4926490126124975e-03  -1.0306192116971832e-03  -5.0113518784206529e-03  -7.9851508336634038e-03  -7.5699457881260677e-03  -7.9562686039227806e-03  -7.5990809729265191e-03  -9.6659793354061229e-03  -9.3175449608089312e-03  -8.9078280544287111e-03  -8.1696440865855167e-03  -5.8883987964834846e-03  -7.4339419359312538e-03  -3.3894254887890858e-03  -6.1888645811955089e-03  -7.4151378868531279e-03  -2.7051945098806331e-03  -6.6234917062500676e-03  -7.1721213347242371e-03  -6.7857134019699561e-03  -9.4377263793235869e-03  -8.2939623582260567e-03  -8.2241447737036906e-03  -9.4582784401763820e-03  -6.7738779330960468e-03  -7.2143345653798742e-03  -6.5813506604449398e-03  -2.8150535823174856e-03  -7.5953853565441628e-03  -6.3707863391824484e-03  -3.4132614988153674e-03  -7.4999275201160839e-03  -5.9238209615531858e-03  -8.2488995025737314e-03  -9.0065055572951316e-03  -9.4593157035434555e-03  -9.8168191822469147e-03  -7.5982475564238755e-03  -7.8479952514645471e-03  -7.5160361699404387e-03  -8.1461346254728343e-03  -5.1495217715130399e-03  -1.3580411226511483e-03  -7.6410328378393767e-03  -6.1023934792115691e-03  -2.7910766089564980e-03  -7.6879914994747106e-03  -8.4054740195813795e-03  -8.0208733538985316e-03  9.3649252706749342e-01  8.9587443635884956e-01  8.6022383512079370e-01  8.3832348652660627e-01  9.2389043675219906e-01  9.0713899163669098e-01  8.8046358683082515e-01  8.8189327354189073e-01  5.4090276691239203e-01  1.9268033051129663e-01  1.5918144910417972e-01  4.6255985401199767e-01  1.7576264361799546e-01  1.5318118277502674e-01  2.4808399883864762e-01  2.4284039717752717e-01  2.8325624812311201e-01  2.7558442063607208e-01  1.8260942783010137e-01  1.8366430033608000e-01  2.2264032904351622e-01  2.1227231589327286e-01  1.4255449297267397e-01  1.1304943001821355e-01  1.1376920521545243e-01  1.1333993432868254e-01  8.4322491871038296e-02  1.2675178090517994e-01  1.2132288403224739e-01  8.9962778425337786e-02  1.1852336599932836e+00  9.5757191976708553e-02  9.5533176980452772e-02  1.1817236073079070e-01  1.1392803026038482e-01  1.2353507182451711e+00  1.2497147294398312e+00  6.5237846301441221e-02  6.6353592217178681e-02  1.1655102229362793e+00  1.2483533258983877e+00  8.7479616252933559e-02  9.7466953234104370e-02  9.4578932413154670e-01  9.5580828593433176e-01  8.3964428082942022e-02  8.5831770288116657e-02  9.6264893127809492e-01  9.1930881624474825e-01  1.0380074963344950e+00  6.9415095878332084e-02  6.5062615392953715e-02  9.2600443384729192e-01  9.2203222204617596e-01  6.8741537989379653e-02  6.9069911787576113e-02  8.6115911566107628e-01  6.6975569376267294e-02  5.8480075519861952e-02  5.8423987254036559e-02  2.9551830033461618e-01  3.0749234582065982e-01  7.8818412586015116e-02  7.9302642251535507e-02  7.7349954080851754e-02  7.6762824588980205e-02  6.3134681824611363e-02  6.7359498223911782e-02  5.4732434012142062e-02  1.2374089650236071e+00  5.6486383104154242e-02  6.5417391813963777e-02  9.5154521929489888e-01  6.0641884225164769e-02  6.1243540411836744e-02  6.7690114047252137e-01  2.3231482126886194e-01  4.5280239344477935e-01  4.6377224269303524e-01  6.5395944164996533e-01  6.7961606673496366e-01  6.4671362601704740e-01  6.4469080191125105e-01  6.4446605613652430e-01  6.6448397342786769e-01  6.6147931940961013e-01  7.3395871174713379e-01  4.7414876243508197e-01  7.0356303048127261e-02  6.4210326063096901e-02  6.4636820587042426e-02  7.0228608829715389e-01  5.6770672792062626e-01  6.2117980762862214e-02  6.2701115773645635e-02  1.2200295428570027e+00  5.8598317972057890e-01  5.7679502573915464e-01  8.3444698079500779e-01  5.8465709924416569e-02  5.8333882620592789e-02  3.1817253249927530e-01  6.7810378927838838e-02  6.4435805357722781e-02  5.5543338737956381e-02  5.5108141954241255e-02  3.9153428354626862e-01  1.9448000710794278e-01  1.9264753485778577e-01  4.7769993215604059e-02  5.4294592484486225e-02  5.0220098668683114e-02  4.9788403214545897e-02  5.4738333467979496e-02  5.4945476748065596e-02  5.7246687811757520e-02  5.8394180042026241e-02  3.8614467506893752e-01  2.3100930410361667e-01  2.2625481550125856e-01  1.0134200790653360e+00  3.5315380854629191e-01  3.4534401022340305e-01  2.0844183672492225e-01  1.1471134937068528e+00  5.8860430091600280e-01  5.9860932160888525e-01  8.8443946340837909e-01  5.7376499086560973e-01  5.8002032335218690e-01  5.1101558447514593e-02  5.1213563379567929e-02  4.9243463222914702e-02  4.4793321861542709e-02  4.5276984729429329e-02  2.1653602933808244e-01  1.1018605610652028e+00  1.5935335883200183e-01  1.8787728966882536e-01  1.0006986747748509e-01  1.0177105914697651e-01  5.8273146321429596e-02  6.7732285416916516e-01  4.9720448950002417e-02  4.9224974654114260e-02  1.4648024097258724e-01  1.4965022047557944e-01  1.0844020183029350e+00  1.0128800500261432e+00  4.3847920980876774e-02  4.3973963160441686e-02  6.7272268913985134e-01  1.0916803513039535e+00  1.1228440981897745e+00  9.2268564817799020e-02  9.1884760727297218e-02  4.5490913342663669e-01  4.3303056989538659e-02  1.2056008048034102e-01  7.4742418799985544e-01  7.5485985196009564e-01  5.8321315777412445e-02  1.2951243931048018e+00  4.7285948446967728e-02  4.7633076850845175e-02  2.1415222824526767e-01  2.1435760704312651e-01  9.2987407994040719e-02  9.3461770526755777e-02  1.0671714966645969e+00  2.3273981787464343e-01  2.3225938591415074e-01  8.1244041624290397e-01  4.5866690225383103e-02  4.6181382527975649e-02  5.0454317927265437e-02  5.1066602284376712e-02  4.7803953782810653e-02  4.8004846980361726e-02  7.9688809541020444e-01  8.7624353248990638e-01  1.9468682097740247e-01  2.0234058313276543e-01  5.1148291926827176e-02  1.0723531656298741e+00  8.0516709228367933e-01  8.8897765991231903e-01  2.2550607517981652e-01  7.9001883106562709e-01  7.9611215483222286e-01  1.2911699269617993e+00  3.0012234271518240e-01  2.7755425025519631e-01  5.0785490230370843e-02  5.1529686731416072e-02  5.4426320300096719e-02  -2.6782587876254746e-02  -2.6784434903068428e-02  -2.6889711669956674e-02  -2.6873424212950511e-02  -2.4112759900018411e-02  -2.4080060333706698e-02  -2.4700683150282756e-02  -2.4704780323398259e-02  -2.4850722221776023e-02  -2.4870784656759397e-02  -2.5247619810607660e-02  -2.5266652621351929e-02  -2.2180246496497365e-02  -2.2172644263398409e-02  -2.1953602704921943e-02  -2.2139170855430802e-02  -2.6136229817934318e-02  -2.6142800267920145e-02  -2.5869829793823681e-02  -2.5861649166410802e-02  -2.5057580426413598e-02  -2.5072326118994636e-02  -2.4996022827834027e-02  -2.5013270761361457e-02  -2.2925510897101962e-02  -2.2932929926232960e-02  -2.2736694468152636e-02  -2.3202898029003313e-02  -2.2718616466864638e-02  -2.3185539720884409e-02  -2.3342298254760464e-02  -2.3356929983607427e-02  -2.2017612532375525e-02  -1.9043591585664928e-02  -2.2006503068942113e-02  -1.9036515804666372e-02  -2.3434463550398917e-02  -2.3454813324836267e-02  -1.8482863020823269e-02  -1.8480786087699135e-02  -2.3120098675074599e-02  -2.3093202805187566e-02  -2.1417537588114276e-02  -2.1404242589819052e-02  -2.2326917360369562e-02  -2.1811994572201517e-02  -2.1805446980632096e-02  -2.2342650721238637e-02  -2.2369098547559953e-02  -2.1565490299658371e-02  -2.1558725112733039e-02  -2.1299526498378948e-02  -2.1302529860069374e-02  -2.2209180573703906e-02  -1.8074203158241313e-02  -1.9433269723872600e-02  -1.7876537944369719e-02  -1.7883755281646475e-02  -1.7545351192068386e-02  -1.7125013002007403e-02  -2.6346413192476246e-02  -2.6358678526393075e-02  -2.6902808880301138e-02  -2.6913919868373330e-02  -2.2801748774159632e-02  -2.2527319815208051e-02  -2.2827722834701535e-02  -2.2561256592639124e-02  -2.6568726378486909e-02  -2.6564790967818861e-02  -2.7181905596080379e-02  -2.7201283343958230e-02  -2.3310382679194063e-02  -2.3288283667376935e-02  -1.7535246335472685e-02  -1.7596737170401684e-02  -1.6973969194947487e-02  -1.6958263421092381e-02  -2.2328433539160496e-02  -2.2289342656205663e-02  -1.7147653944661664e-02  -1.7139889520642073e-02  -2.2112580712916850e-02  -2.2104256636810340e-02  -2.0874014460273281e-02  -2.2866773434284546e-02  -2.0879867041719402e-02  -2.2877804969495725e-02  -2.1377682162897021e-02  -2.1389101464925984e-02  -2.0867363943285575e-02  -2.0837243876091607e-02  -1.9686751531601310e-02  -1.9707238494240963e-02  -2.0818045771323575e-02  -2.0784086888185480e-02  -2.3127121352471192e-02  -2.3137243922935927e-02  -2.3479979337619396e-02  -2.3481868793344598e-02  -2.0174271120320029e-02  -2.0229006209199780e-02  -2.3415236077372753e-02  -2.3398790859341895e-02  -1.9761790665175815e-02  -1.9777396643824628e-02  -2.5325118936308188e-02  -2.5330399901057760e-02  -2.1039660427677728e-02  -2.1064189879130585e-02  -2.0403253232210629e-02  -2.0380875781029144e-02  -1.5383064388826216e-02  -1.5391502121216854e-02  -2.5604448921335111e-02  -2.5616148084559240e-02  -1.9805128464427446e-02  -1.9822646653296964e-02  -1.5640370273918763e-02  -1.5640214938226642e-02  -1.5170655106083349e-02  -1.5164618249653213e-02  -1.4245458077643791e-02  -2.3860575948281535e-02  -2.3864285276665408e-02  -2.3441781138634706e-02  -2.3453487006849495e-02  -2.3564995685460274e-02  -2.3616176220766182e-02  -2.3163739410846006e-02  -2.3168326233808174e-02  -2.6594570067940720e-02  -2.6603538855712872e-02  -2.6625781956604470e-02  -2.6643347465616175e-02  -1.9960677940842914e-02  -1.9967665387210915e-02  -2.2774278736642350e-02  -2.2841106305116217e-02  -1.9883075591976145e-02  -1.9847657390239012e-02  -1.4908050491663126e-02  -1.4791435883987113e-02  -1.4789115160635113e-02  -8.6571877121587679e-03  -8.6550055481774760e-03  -8.5532583828164498e-03  -8.5514738873107409e-03  -1.3876626857030821e-02  -1.3872248731408368e-02  -2.4757277649972636e-02  -2.4769004661007041e-02  -2.5006415641593997e-02  -2.5023983565946824e-02  -2.4805276101011357e-02  -2.4820773568726067e-02  -2.7395103922988984e-02  -2.7375327371682377e-02  -2.4547222350367090e-02  -2.4534687056264434e-02  -2.7426356298212502e-02  -2.7424269071892510e-02  -1.9429038786779304e-02  -1.9468535732263575e-02  -1.6777426737116245e-02  -1.6780629447313032e-02  -1.8627799841617394e-02  -1.8701788952951794e-02  -1.9021131790943210e-02  -2.2087884465746454e-02  -2.1833667415178809e-02  -1.4033758308642020e-02  -1.4027809317961033e-02  -2.5526672198465182e-02  -2.5535195056769100e-02  -2.3920833584345817e-02  -2.3914096162678478e-02  -2.4289578224662382e-02  -2.4286539352746443e-02  -2.3678994415474205e-02  -2.3674198114310405e-02  -1.8158667753712259e-02  -1.8204782108386972e-02  -2.2582025506583246e-02  -2.2578342870990312e-02  -2.2657387582658766e-02  -2.2806266800103139e-02  -1.5931268440600891e-02  -1.5955878803003413e-02  -1.5951303202809464e-02  -2.5795499194422072e-02  -2.5779705029862977e-02  -1.6761063852440687e-02  -1.6704276526783690e-02  -1.5204814950239173e-02  -1.5206802782390191e-02  -2.0264461582482306e-02  -2.4960009801091424e-02  -2.4972820357054566e-02  -1.5079477046800755e-02  -1.5081876955428706e-02  -1.8092305028907966e-02  -2.3606455978379591e-02  -1.8146617213845081e-02  -2.3632864653385925e-02  -1.4057155242624330e-02  -1.4052875987407168e-02  -2.2535678796201334e-02  -2.2556425343953530e-02  -2.2817149956722550e-02  -2.2843585743130081e-02  -1.9838315799447982e-02  -1.9871252186872239e-02  -2.5480837334403660e-02  -2.5484864919201298e-02  -1.7576703410041000e-02  -2.3360362985808784e-02  -1.7628413972517937e-02  -2.3387904602175800e-02  -2.2268280906068298e-02  -2.2275764349583158e-02  -1.5715257786929424e-02  -1.5732517651142256e-02  -1.5936606249814363e-02  -1.5929978638132253e-02  -1.3262924773574330e-02  -1.3266062361882651e-02  -2.3083533002346040e-02  -2.3065058938026958e-02  -2.3496627634843316e-02  -2.3475411644280728e-02  -2.3545078060818243e-02  -2.3558989104561275e-02  -1.5103029807062801e-02  -1.5095789407224187e-02  -2.4495412289367382e-02  -2.4516517770583838e-02  -2.6463994266657066e-02  -2.6477161746828178e-02  -2.4795892066892537e-02  -2.4793664625288789e-02  -1.9284058302008356e-02  -1.9333482412925256e-02  -2.5794632448025885e-02  -2.5805314282923878e-02  -2.6700127974538905e-02  -2.6676131802276182e-02  -1.8760772421365837e-02  -1.8825014881605727e-02  -1.8834465996625416e-02  -1.8871569230007424e-02  -2.2474966330173991e-02  -2.2481085339473735e-02  -1.2909579566282943e-02  -1.2912428176319381e-02  -1.8514440035311167e-02  -1.8481798985022425e-02  -2.4806219464372940e-02  -2.4355707542731708e-02  -2.4792097420847814e-02  -2.4341624571249314e-02  -2.6567545258962589e-02  -2.6568506717388602e-02  -2.7456605244845115e-02  -2.7451790412235662e-02  -1.7586319895547313e-02  -1.7680466291593706e-02  -2.1573108868838526e-02  -2.1590256803813133e-02  -2.5947361031444093e-02  -2.5960115072098767e-02  -2.7570414890966063e-02  -2.7552175299726173e-02  -2.3818937773793101e-02  -2.3801136655503978e-02  -2.3552796604824129e-02  -2.3575370969896044e-02  -1.9758048390081311e-02  -1.5355446987210360e-02  -1.5360452138694776e-02  -2.0587659455402214e-02  -1.5696756853622120e-02  -1.5793225431713430e-02  -1.5816959594378018e-02  -1.4773186083928974e-02  -1.2457816364092978e-02  -1.2459323013005914e-02  -1.8742483371370005e-02  -1.8600319045678024e-02  -1.2748209105123080e-02  -1.2745078633559993e-02  -1.4045816936909008e-02  -1.5710988915772148e-02  -1.5726511953196496e-02  -1.8982213522310516e-02  -1.9021550604840391e-02  -1.4039038909290622e-02  -1.4034329505686890e-02  -2.2798639719497811e-02  -2.2804107597756636e-02  -2.3439165191519465e-02  -2.3451883997793795e-02  -2.6597673896389375e-02  -2.6581098943488667e-02  -2.2927102565552387e-02  -2.2958753878926742e-02  -2.2731832647030374e-02  -2.5959130568730133e-02  -2.5961358275246784e-02  -2.4365299918781502e-02  -2.4384840338264668e-02  -2.2636531886706075e-02  -1.7692217755250907e-02  -1.7675408872579124e-02  -2.5432691862566845e-02  -2.5448542667780457e-02  -1.8596298759369394e-02  -1.8668634516099212e-02  -1.4270720981025694e-02  -1.4273852814336005e-02  -1.8309388938281858e-02  -1.8277684877883966e-02  -1.4304347423656322e-02  -1.4330979510052059e-02  -1.7587165176921556e-02  -1.7896510725838245e-02  -2.2719574787600776e-02  -1.3825101742127874e-02  -2.1686764112460816e-02  -2.1712702444979071e-02  -2.0755600645965808e-02  -2.0757164560503950e-02  -2.1946844495026492e-02  -2.1955209564356488e-02  -2.1638775942562766e-02  -2.3192878969189437e-02  -2.1645610161380436e-02  -2.3176338444092722e-02  -2.6338118152615705e-02  -2.6356895207395762e-02  -2.4883520670041633e-02  -2.4870193962673270e-02  -2.3454050851826544e-02  -2.3425485873606079e-02  -2.2003979223332925e-02  -2.2013561708096482e-02  -2.5027878979097994e-02  -2.5042400804326268e-02  -2.5881652181791750e-02  -2.5870098551425177e-02  -2.3323167800410230e-02  -2.3307012676797124e-02  -2.0097817515741457e-02  -2.0092348594291706e-02  -2.1214734810487558e-02  -2.1202015619213838e-02  -2.1450064056345822e-02  -2.1440127941510973e-02  -2.4842727580866482e-02  -2.4841747449629352e-02  -1.8649722236900108e-02  -1.8643058836365391e-02  -1.8006227889918614e-02  -1.7759101527448608e-02  -2.3977242552558824e-02  -2.4017977343026225e-02  -2.3020843484724576e-02  -2.3020515293145354e-02  -1.3531797494306691e-02  -1.3532336963600986e-02  -2.1226375959141130e-02  -2.1257034676432952e-02  -2.1389390299008930e-02  -2.1314545669059746e-02  -2.3094094925024657e-02  -2.3101604001794257e-02  -1.8602664781836427e-02  -1.8708587103725333e-02  -2.0202688768950594e-02  -2.0193692670141889e-02  -2.3653962783907911e-02  -2.3631890217222885e-02  -2.4617724258847496e-02  -2.46117445