<?xml version="1.0"?>
<VTKFile type="UnstructuredGrid"  version="0.1"  >
<UnstructuredGrid>
<Piece  NumberOfPoints="1286" NumberOfCells="2474">
<Points>
<DataArray  type="Float64"  NumberOfComponents="3"  format="ascii">0 0 0  0 1 0  1 1 0  1 0 0  1.1 -0.1 0  -0.1 -0.1 0  1.1 1.1 0  -0.1 1.1 0  0.2521152931620959 0.499760140198797 0  0.4995408681065558 0.4999481781144328 0  0 0.9499999999997918 0  0 0.8999999999995836 0  0 0.8499999999996529 0  0 0.7999999999999998 0  0 0.7500000000003466 0  0 0.7000000000006934 0  0 0.6500000000010401 0  0 0.6000000000013869 0  0 0.5500000000017335 0  0 0.5000000000020587 0  0 0.4500000000018723 0  0 0.4000000000016644 0  0 0.3500000000014564 0  0 0.3000000000012483 0  0 0.2500000000010403 0  0 0.2000000000008322 0  0 0.1500000000006241 0  0 0.100000000000416 0  0 0.05000000000020799 0  0.04999999999989965 0 0  0.09999999999981467 0 0  0.1499999999997036 0 0  0.1999999999995579 0 0  0.2499999999994121 0 0  0.2999999999992664 0 0  0.3499999999991206 0 0  0.3999999999989749 0 0  0.4499999999988292 0 0  0.4999999999986943 0 0  0.5499999999988151 0 0  0.5999999999989468 0 0  0.6499999999990784 0 0  0.69999999999921 0 0  0.7499999999993417 0 0  0.7999999999994734 0 0  0.8499999999996051 0 0  0.8999999999997368 0 0  0.9499999999998684 0 0  1 0.04999999999989965 0  1 0.09999999999981467 0  1 0.1499999999997036 0  1 0.1999999999995579 0  1 0.2499999999994121 0  1 0.2999999999992664 0  1 0.3499999999991206 0  1 0.3999999999989749 0  1 0.4499999999988292 0  1 0.4999999999986943 0  1 0.5499999999988151 0  1 0.5999999999989468 0  1 0.6499999999990784 0  1 0.69999999999921 0  1 0.7499999999993417 0  1 0.7999999999994734 0  1 0.8499999999996051 0  1 0.8999999999997368 0  1 0.9499999999998684 0  0.9499999999997918 1 0  0.8999999999995836 1 0  0.8499999999996529 1 0  0.7999999999999998 1 0  0.7500000000003466 1 0  0.7000000000006934 1 0  0.6500000000010401 1 0  0.6000000000013869 1 0  0.5500000000017335 1 0  0.5000000000020587 1 0  0.4500000000018723 1 0  0.4000000000016644 1 0  0.3500000000014564 1 0  0.3000000000012483 1 0  0.2500000000010403 1 0  0.2000000000008322 1 0  0.1500000000006241 1 0  0.100000000000416 1 0  0.05000000000020799 1 0  -0.1 1.05000000000004 0  -0.1 1.000000000000079 0  -0.1 0.9500000000001624 0  -0.1 0.9000000000003032 0  -0.1 0.850000000000444 0  -0.1 0.8000000000005848 0  -0.1 0.7500000000007256 0  -0.1 0.7000000000008665 0  -0.1 0.6500000000010508 0  -0.1 0.6000000000012352 0  -0.1 0.5500000000014196 0  -0.1 0.500000000001539 0  -0.1 0.4500000000014195 0  -0.1 0.4000000000013 0  -0.1 0.3500000000011588 0  -0.1 0.3000000000010178 0  -0.1 0.2500000000008986 0  -0.1 0.2000000000007579 0  -0.1 0.1500000000006174 0  -0.1 0.1000000000005272 0  -0.1 0.05000000000040083 0  -0.1 2.671196597248127e-13 0  -0.1 -0.0499999999998666 0  -0.0500000000000906 -0.1 0  -1.730560139634463e-13 -0.1 0  0.04999999999975802 -0.1 0  0.09999999999961506 -0.1 0  0.1499999999994613 -0.1 0  0.199999999999302 -0.1 0  0.2499999999991446 -0.1 0  0.2999999999990088 -0.1 0  0.3499999999988296 -0.1 0  0.3999999999986936 -0.1 0  0.4499999999985143 -0.1 0  0.4999999999984002 -0.1 0  0.5499999999985247 -0.1 0  0.5999999999986493 -0.1 0  0.6499999999987955 -0.1 0  0.6999999999989417 -0.1 0  0.7499999999990659 -0.1 0  0.7999999999992116 -0.1 0  0.8499999999993573 -0.1 0  0.8999999999994526 -0.1 0  0.949999999999584 -0.1 0  0.9999999999997226 -0.1 0  1.049999999999861 -0.1 0  1.1 -0.0500000000000906 0  1.1 -1.730560139634463e-13 0  1.1 0.04999999999975802 0  1.1 0.09999999999961506 0  1.1 0.1499999999994613 0  1.1 0.199999999999302 0  1.1 0.2499999999991446 0  1.1 0.2999999999990088 0  1.1 0.3499999999988296 0  1.1 0.3999999999986936 0  1.1 0.4499999999985143 0  1.1 0.4999999999984002 0  1.1 0.5499999999985247 0  1.1 0.5999999999986493 0  1.1 0.6499999999987955 0  1.1 0.6999999999989417 0  1.1 0.7499999999990659 0  1.1 0.7999999999992116 0  1.1 0.8499999999993573 0  1.1 0.8999999999994526 0  1.1 0.949999999999584 0  1.1 0.9999999999997226 0  1.1 1.049999999999861 0  1.05000000000004 1.1 0  1.000000000000079 1.1 0  0.9500000000001624 1.1 0  0.9000000000003032 1.1 0  0.850000000000444 1.1 0  0.8000000000005848 1.1 0  0.7500000000007256 1.1 0  0.7000000000008665 1.1 0  0.6500000000010508 1.1 0  0.6000000000012352 1.1 0  0.5500000000014196 1.1 0  0.500000000001539 1.1 0  0.4500000000014195 1.1 0  0.4000000000013 1.1 0  0.3500000000011588 1.1 0  0.3000000000010178 1.1 0  0.2500000000008986 1.1 0  0.2000000000007579 1.1 0  0.1500000000006174 1.1 0  0.1000000000005272 1.1 0  0.05000000000040083 1.1 0  2.671196597248127e-13 1.1 0  -0.0499999999998666 1.1 0  0.2538359190968251 0.469552572701969 0  0.2591057465792691 0.4407926813530575 0  0.2670813663709285 0.4135746354108004 0  0.2780581962936675 0.3875724870327116 0  0.2916480115462636 0.3635699214521519 0  0.3074085306669643 0.3415633379590474 0  0.3255521992293037 0.3209382791845434 0  0.3466019187599974 0.3023001677191016 0  0.369327012744805 0.2869559742361172 0  0.3934700269604607 0.2744120258232857 0  0.4193941195383505 0.2646686199344181 0  0.4470997143538236 0.2577289584398612 0  0.4766012727719886 0.2537405747692536 0  0.5074084023389203 0.2526405303017719 0  0.5377908601023703 0.2552153192407857 0  0.5663490905764514 0.2609576871453412 0  0.5931154011353896 0.2692393643524726 0  0.618327096238615 0.2807519914448219 0  0.6418187094087993 0.2951904479733465 0  0.6636901169874941 0.3124707367003501 0  0.6830682014665982 0.3315170877943773 0  0.7006696814838176 0.3532290762016604 0  0.7153927256040564 0.3763099414386073 0  0.7276229908845672 0.4005654907177403 0  0.7375806027919448 0.4269188468473964 0  0.7443907046221411 0.454999806578034 0  0.7483185214493615 0.4845840865588327 0  0.7481604161959415 0.5153553973621063 0  0.7439979275123851 0.5449427220637341 0  0.7371592650052938 0.5729678446376377 0  0.7272569057098293 0.5993714997427831 0  0.715133557683694 0.6239334153392717 0  0.7006191917690102 0.6472915621911212 0  0.6832173085332519 0.6691770753549772 0  0.6638431212536118 0.6883815990343991 0  0.6421295447642902 0.7054745810119892 0  0.6185980650976625 0.7197769022681668 0  0.5932673450985925 0.7312023991415532 0  0.5663689176731753 0.7393896908471096 0  0.5377984919486828 0.7450609439859179 0  0.5073988806905817 0.7476327760717849 0  0.4766977218782977 0.7465016531107808 0  0.4474221680407564 0.7423291295072051 0  0.4197131302880042 0.7350088207749516 0  0.3939075605786052 0.725029484639667 0  0.3699307788287526 0.7124284365591436 0  0.3473457003909178 0.6971428192752752 0  0.3261176889559377 0.6785139311507865 0  0.3078191769666705 0.6581617256983656 0  0.2918088966612665 0.6363449638490657 0  0.278099732755718 0.6123417464027042 0  0.2670002446470595 0.5862885064877073 0  0.2589735847221139 0.5588934907155538 0  0.253764619953551 0.5300062333969245 0  0.5013462734136382 0.615026297749499 0  0.5070174197662424 0.379151959150001 0  0.6293037353974053 0.4985557900119902 0  0.3648525898334465 0.4998595741423548 0  0.4102451733499337 0.4225301576031513 0  0.407362263146404 0.5773065663431026 0  0.5789754993241277 0.4058240943889406 0  0.5785868825656368 0.5943134302504259 0  0.4380745778597577 0.6440304403407681 0  0.4859688743616802 0.6823566779018282 0  0.5455759181610333 0.6806323963813228 0  0.4330578806062156 0.3520869459623289 0  0.4863449573066138 0.3160126224941153 0  0.5474760899931843 0.3191765299154029 0  0.6505982538507901 0.5881303836943372 0  0.651092588398953 0.4122373863767906 0  0.3456946412999823 0.5761594717919662 0  0.3449034870669979 0.4231242382133095 0  0.3823449083021766 0.639144609127118 0  0.3832025068283132 0.3598521349990867 0  0.592212380939147 0.6516551578092838 0  0.593152182846351 0.3478575983076122 0  0.6894956053437147 0.5000662252207725 0  0.6900528419541573 0.5550705543883928 0  0.6900367184565915 0.4457397418420003 0  0.3068443984295399 0.4537751722371252 0  0.2975407598438901 0.5059529777971952 0  0.6356883996814376 0.3673545033382044 0  0.6362894450771476 0.6336697985963388 0  0.3047357735073475 0.5565015396451649 0  0.425099452273795 0.5132786035113867 0  0.4409322448327476 0.6928463696549879 0  0.4411085917190072 0.307360671206555 0  0.3465244685971109 0.3790843458739029 0  0.3464693994662535 0.6214699458191069 0  0.5630978714503783 0.5249478734762797 0  0.521127442926911 0.4399750320228614 0  0.5200715458248628 0.2893672147540154 0  0.519565521357369 0.710523117159668 0  0.469247712792416 0.5729144713338141 0  0.4680413349994074 0.445154777782726 0  0.3969062343652169 0.6704184636851827 0  0.3975104806183376 0.3299078284648643 0  0.6032895593781867 0.4571282892438752 0  0.6020659646882174 0.5414532418335706 0  0.5818829733416371 0.3150550467539169 0  0.5812183491379677 0.6848802664412751 0  0.3956825474064225 0.5311297792710186 0  0.390114891051781 0.4650672632364558 0  0.4475662996337157 0.4177479666470975 0  0.7096218818304481 0.5305765333583512 0  0.7108620835509769 0.4683099460524184 0  0.54329965248634 0.6100380690182553 0  0.5447434810782944 0.3894093471101639 0  0.6930051709679435 0.5896732671784425 0  0.6931455101062953 0.410366876858154 0  0.4293420431766258 0.6091738946311016 0  0.3038772562445269 0.4173668972196642 0  0.4724736773536594 0.7195707350724002 0  0.4724730818327743 0.2805902555465577 0  0.4609370235291554 0.667791891886688 0  0.4586259443011055 0.3324836197251292 0  0.666490698629074 0.3754093545423818 0  0.666261017500377 0.6248571328985609 0  0.629233933798251 0.3344594007707427 0  0.6294664746436115 0.66597267351889 0  0.2831719255133722 0.4710326564520738 0  0.3080621059164712 0.5870373604511634 0  0.7217990279593999 0.5000095607046662 0  0.5168981866059634 0.5648137409460079 0  0.2840283761715943 0.5361442769013347 0  0.3195112239660734 0.3905432323100777 0  0.4623931802982091 0.6056219308807675 0  0.5673039597767767 0.290104877357321 0  0.5661849590068597 0.7101311191311068 0  0.354179737084636 0.5368842016715032 0  0.3235925121188826 0.5254676484145795 0  0.5614505839642738 0.3
[...]
<PointData  Scalars="state"> 
<DataArray  type="Float64"  Name="state"  format="ascii">0.0000000000000000e+00  0.0000000000000000e+00  0.0000000000000000e+00  0.0000000000000000e+00  0.0000000000000000e+00  0.0000000000000000e+00  0.0000000000000000e+00  0.0000000000000000e+00  -1.0601752199815266e-02  1.3701224457376047e+00  0.0000000000000000e+00  0.0000000000000000e+00  0.0000000000000000e+00  0.0000000000000000e+00  0.0000000000000000e+00  0.0000000000000000e+00  0.0000000000000000e+00  0.0000000000000000e+00  0.0000000000000000e+00  0.0000000000000000e+00  0.0000000000000000e+00  0.0000000000000000e+00  0.0000000000000000e+00  0.0000000000000000e+00  0.0000000000000000e+00  0.0000000000000000e+00  0.0000000000000000e+00  0.0000000000000000e+00  0.0000000000000000e+00  0.0000000000000000e+00  0.0000000000000000e+00  0.0000000000000000e+00  0.0000000000000000e+00  0.0000000000000000e+00  0.0000000000000000e+00  0.0000000000000000e+00  0.0000000000000000e+00  0.0000000000000000e+00  0.0000000000000000e+00  0.0000000000000000e+00  0.0000000000000000e+00  0.0000000000000000e+00  0.0000000000000000e+00  0.0000000000000000e+00  0.0000000000000000e+00  0.0000000000000000e+00  0.0000000000000000e+00  0.0000000000000000e+00  0.0000000000000000e+00  0.0000000000000000e+00  0.0000000000000000e+00  0.0000000000000000e+00  0.0000000000000000e+00  0.0000000000000000e+00  0.0000000000000000e+00  0.0000000000000000e+00  0.0000000000000000e+00  0.0000000000000000e+00  0.0000000000000000e+00  0.0000000000000000e+00  0.0000000000000000e+00  0.0000000000000000e+00  0.0000000000000000e+00  0.0000000000000000e+00  0.0000000000000000e+00  0.0000000000000000e+00  0.0000000000000000e+00  0.0000000000000000e+00  0.0000000000000000e+00  0.0000000000000000e+00  0.0000000000000000e+00  0.0000000000000000e+00  0.0000000000000000e+00  0.0000000000000000e+00  0.0000000000000000e+00  0.0000000000000000e+00  0.0000000000000000e+00  0.0000000000000000e+00  0.0000000000000000e+00  0.0000000000000000e+00  0.0000000000000000e+00  0.0000000000000000e+00  0.0000000000000000e+00  0.0000000000000000e+00  0.0000000000000000e+00  0.0000000000000000e+00  0.0000000000000000e+00  0.0000000000000000e+00  0.0000000000000000e+00  0.0000000000000000e+00  0.0000000000000000e+00  0.0000000000000000e+00  0.0000000000000000e+00  0.0000000000000000e+00  0.0000000000000000e+00  0.0000000000000000e+00  0.0000000000000000e+00  0.0000000000000000e+00  0.0000000000000000e+00  0.0000000000000000e+00  0.0000000000000000e+00  0.0000000000000000e+00  0.0000000000000000e+00  0.0000000000000000e+00  0.0000000000000000e+00  0.0000000000000000e+00  0.0000000000000000e+00  0.0000000000000000e+00  0.0000000000000000e+00  0.0000000000000000e+00  0.0000000000000000e+00  0.0000000000000000e+00  0.0000000000000000e+00  0.0000000000000000e+00  0.0000000000000000e+00  0.0000000000000000e+00  0.0000000000000000e+00  0.0000000000000000e+00  0.0000000000000000e+00  0.0000000000000000e+00  0.0000000000000000e+00  0.0000000000000000e+00  0.0000000000000000e+00  0.0000000000000000e+00  0.0000000000000000e+00  0.0000000000000000e+00  0.0000000000000000e+00  0.0000000000000000e+00  0.0000000000000000e+00  0.0000000000000000e+00  0.0000000000000000e+00  0.0000000000000000e+00  0.0000000000000000e+00  0.0000000000000000e+00  0.0000000000000000e+00  0.0000000000000000e+00  0.0000000000000000e+00  0.0000000000000000e+00  0.0000000000000000e+00  0.0000000000000000e+00  0.0000000000000000e+00  0.0000000000000000e+00  0.0000000000000000e+00  0.0000000000000000e+00  0.0000000000000000e+00  0.0000000000000000e+00  0.0000000000000000e+00  0.0000000000000000e+00  0.0000000000000000e+00  0.0000000000000000e+00  0.0000000000000000e+00  0.0000000000000000e+00  0.0000000000000000e+00  0.0000000000000000e+00  0.0000000000000000e+00  0.0000000000000000e+00  0.0000000000000000e+00  0.0000000000000000e+00  0.0000000000000000e+00  0.0000000000000000e+00  0.0000000000000000e+00  0.0000000000000000e+00  0.0000000000000000e+00  0.0000000000000000e+00  0.0000000000000000e+00  0.0000000000000000e+00  0.0000000000000000e+00  0.0000000000000000e+00  0.0000000000000000e+00  0.0000000000000000e+00  0.0000000000000000e+00  0.0000000000000000e+00  0.0000000000000000e+00  0.0000000000000000e+00  0.0000000000000000e+00  0.0000000000000000e+00  0.0000000000000000e+00  0.0000000000000000e+00  -8.4486071470098265e-03  -9.1405256656922184e-03  -5.5006077378404071e-03  -5.9052299749291276e-03  -6.3117883173788095e-03  -8.2351140240396626e-03  -1.5090702167356307e-03  -5.5509448143248197e-03  -9.1460992546968951e-03  -8.7907973268066611e-03  -9.0447294666301387e-03  -8.0512049363937865e-03  -9.5455561119725287e-03  -8.8324262651521077e-03  -9.0173478870645436e-03  -9.1125990355443425e-03  -6.8194112982203972e-03  -8.2350304307093614e-03  -3.8621486945107802e-03  -6.4100084080377104e-03  -7.7389258959094593e-03  -3.1589341709169663e-03  -7.7308108067014134e-03  -8.5117824450196798e-03  -7.7028663462824177e-03  -9.9543002931091300e-03  -8.1517901352251548e-03  -8.0440342025692706e-03  -9.8411419974962049e-03  -7.5026624369057575e-03  -8.3496947089222867e-03  -7.5824954095495044e-03  -3.2477849779052660e-03  -7.9837892950642784e-03  -6.7696688980705792e-03  -4.0243847991309201e-03  -8.3681598849501011e-03  -6.8618050810604261e-03  -9.1328062230486892e-03  -9.0411294770294387e-03  -8.9759550327577729e-03  -9.6793006302490492e-03  -8.1208803864608638e-03  -8.9048214763244211e-03  -8.6836260843445069e-03  -9.1546509706162422e-03  -5.5246681749345061e-03  -1.7077251425435249e-03  -8.4439087480506006e-03  -6.8480213143523976e-03  -3.6752740480972138e-03  -8.4599536488457732e-03  -9.1257591121556170e-03  -8.1197848039732574e-03  9.2568105617149798e-01  8.8728362074978639e-01  8.5016480969054453e-01  8.1731150064427061e-01  9.0903314877578123e-01  8.9284429166675794e-01  8.6897378195050290e-01  8.6986800383175378e-01  5.3147194610811621e-01  1.8607443458799641e-01  1.5152588339801551e-01  4.5576996859671104e-01  1.6971474244424656e-01  1.4538125822263781e-01  2.4058526314900669e-01  2.3621183245933056e-01  2.7317818766705410e-01  2.6270108705290734e-01  1.7889810345338297e-01  1.7968259489565683e-01  2.1555715903248374e-01  2.0379734277306688e-01  1.3963954745733018e-01  1.0929336074626979e-01  1.0978525398107734e-01  1.0903199506743090e-01  8.4666418649547021e-02  1.2328595052529233e-01  1.1824520783239907e-01  8.7872788013819383e-02  1.1660777949578152e+00  9.2671820015827147e-02  9.2435160808044869e-02  1.1528009376315031e-01  1.1132688860516285e-01  1.2192114132379037e+00  1.2324977968869608e+00  6.5054127943997508e-02  6.6383222392579710e-02  1.1472326890077618e+00  1.2311802443698068e+00  8.4210302801017156e-02  9.3668949276585381e-02  9.2905353532342649e-01  9.3970689390897943e-01  8.0489391411131844e-02  8.2291479200940529e-02  9.4752543763203856e-01  9.0544364045905346e-01  1.0208021949975465e+00  6.8369047485512563e-02  6.4084968041330084e-02  9.1121191740627783e-01  9.0737940074015433e-01  6.6190157951965534e-02  6.6005147630042310e-02  8.4841464618883200e-01  6.5300819328839910e-02  5.8299147884768192e-02  5.8354838918327510e-02  2.8120322034306838e-01  2.9420841083463828e-01  7.7269879849837964e-02  7.7869125366130554e-02  7.6350077882048367e-02  7.5488907152900575e-02  6.2025598475386017e-02  6.5195219339888685e-02  5.5431514144067946e-02  1.2193806464501817e+00  5.6343329623653203e-02  6.4111616353874218e-02  9.3467541951174671e-01  5.8388381426946225e-02  5.9167043074933576e-02  6.5386174248490858e-01  2.1649570483071223e-01  4.3713181857387129e-01  4.5065487553598121e-01  6.2706505199698970e-01  6.4687330469016358e-01  6.0888042414607546e-01  6.2791730407414115e-01  6.2616048533354396e-01  6.4844631331780411e-01  6.4066356478896613e-01  7.2047349311048825e-01  4.4447568195230086e-01  6.8409039365515276e-02  6.1325207602607741e-02  6.1947480165349962e-02  6.9215040751517920e-01  5.3876788487217331e-01  6.1384053326079317e-02  6.2122899795767114e-02  1.2034702685923715e+00  5.6718040555936966e-01  5.5229219399093110e-01  8.2055078320556818e-01  5.6327753168299702e-02  5.5836373655501745e-02  2.9220548858035655e-01  6.7099587849824685e-02  6.3294262838106935e-02  5.4180750795206810e-02  5.3510557584394484e-02  3.8243250970125153e-01  1.8384871897121208e-01  1.8271089055295764e-01  4.7819091766773118e-02  5.2549840955247541e-02  5.1094943747940477e-02  5.0664422033992719e-02  5.3123561979912824e-02  5.3397072512562503e-02  5.7067699671350745e-02  5.7922048153487171e-02  3.8007448511061109e-01  2.2343310089189269e-01  2.1765787069680201e-01  9.9719391003713820e-01  3.4093093052464429e-01  3.3439515806680753e-01  1.9777273938493298e-01  1.1279811114758946e+00  5.6486566112171255e-01  5.7643311106984196e-01  8.7074904673295328e-01  5.3830678453975367e-01  5.4507815745370169e-01  5.0031785501144801e-02  5.0014318612205490e-02  4.7370056236404320e-02  4.3578375317374095e-02  4.3750187986567643e-02  2.0677506713624974e-01  1.0826307384076099e+00  1.5500811483158078e-01  1.8180557979644085e-01  9.7681755178308668e-02  9.9387017266791652e-02  5.6895394525526048e-02  6.6026616088014600e-01  4.7243592814931415e-02  4.6830408625217902e-02  1.4102713226288105e-01  1.4432705451850478e-01  1.0677811401928003e+00  9.9472303517665428e-01  4.4198770774946480e-02  4.4502229264815014e-02  6.5745682431548247e-01  1.0743449973859436e+00  1.1051736027767129e+00  9.1771160919543696e-02  9.1398198075289191e-02  4.2350035026095040e-01  4.3616692515538472e-02  1.1824025422573133e-01  7.3216842092091805e-01  7.4234251214927705e-01  5.6665607561067616e-02  1.2773370275335767e+00  4.6344259459464812e-02  4.6337437314628034e-02  2.0795862774607343e-01  2.0862597384217213e-01  9.0920334725132834e-02  9.1824320352614203e-02  1.0498403494700945e+00  2.2385582267750462e-01  2.2435843099023015e-01  7.9944216931613388e-01  4.6518178977466511e-02  4.6682710607923124e-02  4.8771183449481038e-02  4.9735553689660372e-02  4.5757863651332081e-02  4.5995039288329494e-02  7.8562715969940766e-01  8.6259315186552987e-01  1.8892987498490382e-01  1.9690987679662370e-01  4.9283234154390933e-02  1.0528221358705743e+00  7.9364287898462260e-01  8.7556228702393590e-01  2.1189794278703933e-01  7.7717065515886607e-01  7.8260595377317266e-01  1.2745562638646937e+00  2.8842361142442469e-01  2.6466530767500379e-01  5.0748445876792281e-02  5.1302970304929717e-02  5.3053396601064139e-02  -2.7059550817289099e-02  -2.7053101662418002e-02  -2.7175741147739081e-02  -2.7163292830125405e-02  -2.4475263526227729e-02  -2.4437483940288812e-02  -2.5028970747468765e-02  -2.5045118167812516e-02  -2.5192760401311031e-02  -2.5205069754890199e-02  -2.5595625696565448e-02  -2.5609210089170092e-02  -2.2516301476691578e-02  -2.2516882907993540e-02  -2.2290004278989507e-02  -2.2523529440348539e-02  -2.6521171443618284e-02  -2.6534924521454034e-02  -2.6305482660196826e-02  -2.6288963219848620e-02  -2.5503481559497679e-02  -2.5502052922467253e-02  -2.5483547873863126e-02  -2.5476350752841027e-02  -2.3352078904211791e-02  -2.3360748906585852e-02  -2.3094850685057521e-02  -2.3633058396679906e-02  -2.3089658541400077e-02  -2.3622325021843735e-02  -2.3785042744227845e-02  -2.3770962620799210e-02  -2.2209984600037633e-02  -1.9164733596927389e-02  -2.2198803795464350e-02  -1.9159019264671145e-02  -2.3886218307441927e-02  -2.3891741751044668e-02  -1.8592805619097985e-02  -1.8594881626825273e-02  -2.3611140018092180e-02  -2.3562365220406448e-02  -2.1611921195075021e-02  -2.1601935257788748e-02  -2.2733513290616097e-02  -2.2018436903006203e-02  -2.2002040955252836e-02  -2.2719109726717528e-02  -2.2733892687367821e-02  -2.1783730076742041e-02  -2.1783772938183312e-02  -2.1594270625425811e-02  -2.1607628768524977e-02  -2.2573973238431265e-02  -1.8320493290203476e-02  -1.9689657860758575e-02  -1.8103821891251322e-02  -1.8109759583571212e-02  -1.7814743633805873e-02  -1.7389745457383296e-02  -2.6688602165722160e-02  -2.6696294786561200e-02  -2.7234792664177582e-02  -2.7237761926852126e-02  -2.3254658225567774e-02  -2.2946753329833643e-02  -2.3301870608600370e-02  -2.3001332838748202e-02  -2.6886992242000949e-02  -2.6873113078255167e-02  -2.7527189483363499e-02  -2.7541266585188441e-02  -2.3787523086981972e-02  -2.3766945150254210e-02  -1.7732479658871939e-02  -1.7793542477484797e-02  -1.7195509366073190e-02  -1.7172419838311758e-02  -2.2864200369968331e-02  -2.2861103836276112e-02  -1.7352152339060324e-02  -1.7334445640505354e-02  -2.2608166366632879e-02  -2.2641051713161574e-02  -2.1284140067247784e-02  -2.3242634932859545e-02  -2.1260539569519999e-02  -2.3239797463792670e-02  -2.1608522328297308e-02  -2.1619810951456084e-02  -2.1280290443305445e-02  -2.1264125492714496e-02  -2.0205971418911946e-02  -2.0281114444299628e-02  -2.1311581846626584e-02  -2.1258375318532825e-02  -2.3328090767689359e-02  -2.3334339919420660e-02  -2.3670295683117189e-02  -2.3679993373076674e-02  -2.0584361584829240e-02  -2.0620270573264533e-02  -2.3768004918935031e-02  -2.3758433925912429e-02  -2.0303355907929324e-02  -2.0291137972622594e-02  -2.5740239128393606e-02  -2.5747306013993939e-02  -2.1480288877519738e-02  -2.1496354379198338e-02  -2.0730716158760813e-02  -2.0722817121441101e-02  -1.5486736863612457e-02  -1.5492884863007204e-02  -2.6021627115097364e-02  -2.6038106556682213e-02  -2.0411172601455269e-02  -2.0356435285941693e-02  -1.5858240097084184e-02  -1.5852541594168039e-02  -1.5271050842046578e-02  -1.5264511722374573e-02  -1.4437885489945741e-02  -2.4264546268747841e-02  -2.4255061285497610e-02  -2.3635868575970779e-02  -2.3646040155688285e-02  -2.3929829737193573e-02  -2.3975363029724753e-02  -2.3353608204411406e-02  -2.3352393296938712e-02  -2.6972541206285838e-02  -2.6979438803002860e-02  -2.7039780122802698e-02  -2.7044833512989454e-02  -2.0497170253345277e-02  -2.0448049358428835e-02  -2.3159544681564320e-02  -2.3237647850725619e-02  -2.0439261011886086e-02  -2.0396528945504543e-02  -1.5138932040495448e-02  -1.4892255196514397e-02  -1.4884860679005091e-02  -8.6968802378442206e-03  -8.6952353331080871e-03  -8.5910749574231258e-03  -8.5907169504525448e-03  -1.3967209723371459e-02  -1.3965154738780993e-02  -2.5208353443945473e-02  -2.5194188254233078e-02  -2.5475649563431842e-02  -2.5473248316892873e-02  -2.5083822106154098e-02  -2.5097030581938219e-02  -2.7757002739225843e-02  -2.7741746415959615e-02  -2.4817796752847926e-02  -2.4810725455160956e-02  -2.7766821390686577e-02  -2.7773790429690956e-02  -2.0054052106095826e-02  -2.0063635426880496e-02  -1.7011239026176989e-02  -1.7010262588529942e-02  -1.9011702816640118e-02  -1.9169318759860977e-02  -1.9302474331651689e-02  -2.2419171078804558e-02  -2.2151353834252784e-02  -1.4149140707615644e-02  -1.4142672586433964e-02  -2.5781022984227308e-02  -2.5783046831529703e-02  -2.4195432078402287e-02  -2.4177280924720657e-02  -2.4726539803686602e-02  -2.4733776272323080e-02  -2.3967830026250633e-02  -2.3969400804307418e-02  -1.8702222009044242e-02  -1.8815339457307546e-02  -2.2935287445061427e-02  -2.2941895744575148e-02  -2.3071301387345585e-02  -2.3220331568382650e-02  -1.6154539105755546e-02  -1.6102056234503129e-02  -1.6090324212360698e-02  -2.6055760558069456e-02  -2.6041705791385164e-02  -1.6893489801319952e-02  -1.6838228425242668e-02  -1.5323191849947685e-02  -1.5322069428725835e-02  -2.0666572094515154e-02  -2.5220374997088287e-02  -2.5227846824754263e-02  -1.5183762784406677e-02  -1.5191583580858294e-02  -1.8551548413074277e-02  -2.4107436710348443e-02  -1.8528846689858790e-02  -2.4106135203955780e-02  -1.4226819123808122e-02  -1.4216166281632600e-02  -2.2897545593309830e-02  -2.2907848290876880e-02  -2.3214087277856590e-02  -2.3229662525462574e-02  -2.0137509202987486e-02  -2.0173156485380879e-02  -2.5729420263318519e-02  -2.5743682471813842e-02  -1.7975325413981180e-02  -2.3808216791016495e-02  -1.8049001744671504e-02  -2.3833909335737546e-02  -2.2554526149400272e-02  -2.2558548116100492e-02  -1.5861051456389181e-02  -1.5888109998769027e-02  -1.6093875572793303e-02  -1.6088077589170476e-02  -1.3337223338847765e-02  -1.3338195110739000e-02  -2.3454082780554875e-02  -2.3443734872483846e-02  -2.3954099326667779e-02  -2.3930061191604717e-02  -2.3859567879691658e-02  -2.3869224335929008e-02  -1.5246202240366600e-02  -1.5234857840496342e-02  -2.4881177390881491e-02  -2.4894607920694051e-02  -2.6840785951408614e-02  -2.6843936233209392e-02  -2.5197187520107356e-02  -2.5204919398080269e-02  -1.9830402170823283e-02  -1.9869063610147425e-02  -2.6190254453059083e-02  -2.6205040453109365e-02  -2.7084345759564771e-02  -2.7069020914744862e-02  -1.9302806288600316e-02  -1.9406988916395092e-02  -1.9657991404579665e-02  -1.9599026667454656e-02  -2.2762611492560970e-02  -2.2780635132071618e-02  -1.2970009517098039e-02  -1.2972442132571782e-02  -1.9414302057985177e-02  -1.9289568377443337e-02  -2.5269407657264743e-02  -2.4823332263832463e-02  -2.5241661735232384e-02  -2.4797705928268170e-02  -2.6942593933008945e-02  -2.6935333250531743e-02  -2.7774838997692897e-02  -2.7777805356511899e-02  -1.8076741903268464e-02  -1.8270724237853947e-02  -2.1890714818293123e-02  -2.1898430150389957e-02  -2.6385494569205196e-02  -2.6389944655738250e-02  -2.7907639459955960e-02  -2.7893960731582457e-02  -2.4237590328813508e-02  -2.4223887270247432e-02  -2.3980058638705701e-02  -2.4021451658505354e-02  -2.0077680742926179e-02  -1.5517792730405792e-02  -1.5519704061212334e-02  -2.0926813839504926e-02  -1.5869559124081237e-02  -1.5970262424107158e-02  -1.5988378654301152e-02  -1.4920760269144611e-02  -1.2512802547354330e-02  -1.2512287147635212e-02  -1.9188059686181098e-02  -1.9046310261794260e-02  -1.2806376176287047e-02  -1.2804359891601495e-02  -1.4226790068966327e-02  -1.5811726733417013e-02  -1.5825299334365630e-02  -1.9224882442567363e-02  -1.9242578928248797e-02  -1.4126117227269662e-02  -1.4121892909923960e-02  -2.3283711012085394e-02  -2.3249645281152326e-02  -2.3841526129411397e-02  -2.3842393852109907e-02  -2.6997537937044600e-02  -2.6982093634277671e-02  -2.3439046236409598e-02  -2.3445824630479450e-02  -2.3141879188457296e-02  -2.6314600620866945e-02  -2.6327627115936308e-02  -2.4778293018479277e-02  -2.4781909016248587e-02  -2.2996962653033436e-02  -1.8510880743535931e-02  -1.8369678405532504e-02  -2.5795601047837975e-02  -2.5806369171100570e-02  -1.8891993718085125e-02  -1.9062274416696192e-02  -1.4419257723428077e-02  -1.4419107267303662e-02  -1.8769908279491251e-02  -1.8669328859962229e-02  -1.4419851972087163e-02  -1.4449525985357828e-02  -1.8093181610568689e-02  -1.8575523354775317e-02  -2.3137272076171587e-02  -1.3999628119921748e-02  -2.2068618781282075e-02  -2.2080965052540018e-02  -2.1062179344157793e-02  -2.1054912928581450e-02  -2.2266647597962482e-02  -2.2269209040093833e-02  -2.2084337585966625e-02  -2.3640958544867287e-02  -2.2077858623211606e-02  -2.3615758264641646e-02  -2.6678897971433604e-02  -2.6692635259131944e-02  -2.5107928844807361e-02  -2.5097637608665579e-02  -2.3960062832550443e-02  -2.3967178053009294e-02  -2.2451803100213736e-02  -2.2425866629574638e-02  -2.5441593451176279e-02  -2.5465447407539411e-02  -2.6208585647235605e-02  -2.6205487019237955e-02  -2.3793845700118832e-02  -2.3805204535200686e-02  -2.0262713155679721e-02  -2.0248987115035727e-02  -2.1377736914539952e-02  -2.1368758675164686e-02  -2.1614674123863736e-02  -2.1604743608277077e-02  -2.5056132201389199e-02  -2.5063039743498154e-02  -1.8847090050223923e-02  -1.8803661495475309e-02  -1.8572394811305362e-02  -1.8391119373284089e-02  -2.4268229459991505e-02  -2.4303581545613028e-02  -2.3365317595908514e-02  -2.3376687009435529e-02  -1.3678733286694889e-02  -1.3684201063588813e-02  -2.1444830217100318e-02  -2.1473164479392199e-02  -2.1757235100362270e-02  -2.1669173645859595e-02  -2.3367806010383907e-02  -2.3387315565192756e-02  -1.8948293719954729e-02  -1.9041800972137531e-02  -2.0426983783165095e-02  -2.0406644742067957e-02  -2.4063486668407109e-02  -2.4051686401632289e-02  -2.4879856620235164e-02  -2.48628983