<?xml version="1.0"?>
<VTKFile type="UnstructuredGrid"  version="0.1"  >
<UnstructuredGrid>
<Piece  NumberOfPoints="1286" NumberOfCells="2474">
<Points>
<DataArray  type="Float64"  NumberOfComponents="3"  format="ascii">0 0 0  0 1 0  1 1 0  1 0 0  1.1 -0.1 0  -0.1 -0.1 0  1.1 1.1 0  -0.1 1.1 0  0.2518758788346805 0.4997491109373327 0  0.4995593293751668 0.4999465309797435 0  0 0.9499999999997918 0  0 0.8999999999995836 0  0 0.8499999999996529 0  0 0.7999999999999998 0  0 0.7500000000003466 0  0 0.7000000000006934 0  0 0.6500000000010401 0  0 0.6000000000013869 0  0 0.5500000000017335 0  0 0.5000000000020587 0  0 0.4500000000018723 0  0 0.4000000000016644 0  0 0.3500000000014564 0  0 0.3000000000012483 0  0 0.2500000000010403 0  0 0.2000000000008322 0  0 0.1500000000006241 0  0 0.100000000000416 0  0 0.05000000000020799 0  0.04999999999989965 0 0  0.09999999999981467 0 0  0.1499999999997036 0 0  0.1999999999995579 0 0  0.2499999999994121 0 0  0.2999999999992664 0 0  0.3499999999991206 0 0  0.3999999999989749 0 0  0.4499999999988292 0 0  0.4999999999986943 0 0  0.5499999999988151 0 0  0.5999999999989468 0 0  0.6499999999990784 0 0  0.69999999999921 0 0  0.7499999999993417 0 0  0.7999999999994734 0 0  0.8499999999996051 0 0  0.8999999999997368 0 0  0.9499999999998684 0 0  1 0.04999999999989965 0  1 0.09999999999981467 0  1 0.1499999999997036 0  1 0.1999999999995579 0  1 0.2499999999994121 0  1 0.2999999999992664 0  1 0.3499999999991206 0  1 0.3999999999989749 0  1 0.4499999999988292 0  1 0.4999999999986943 0  1 0.5499999999988151 0  1 0.5999999999989468 0  1 0.6499999999990784 0  1 0.69999999999921 0  1 0.7499999999993417 0  1 0.7999999999994734 0  1 0.8499999999996051 0  1 0.8999999999997368 0  1 0.9499999999998684 0  0.9499999999997918 1 0  0.8999999999995836 1 0  0.8499999999996529 1 0  0.7999999999999998 1 0  0.7500000000003466 1 0  0.7000000000006934 1 0  0.6500000000010401 1 0  0.6000000000013869 1 0  0.5500000000017335 1 0  0.5000000000020587 1 0  0.4500000000018723 1 0  0.4000000000016644 1 0  0.3500000000014564 1 0  0.3000000000012483 1 0  0.2500000000010403 1 0  0.2000000000008322 1 0  0.1500000000006241 1 0  0.100000000000416 1 0  0.05000000000020799 1 0  -0.1 1.05000000000004 0  -0.1 1.000000000000079 0  -0.1 0.9500000000001624 0  -0.1 0.9000000000003032 0  -0.1 0.850000000000444 0  -0.1 0.8000000000005848 0  -0.1 0.7500000000007256 0  -0.1 0.7000000000008665 0  -0.1 0.6500000000010508 0  -0.1 0.6000000000012352 0  -0.1 0.5500000000014196 0  -0.1 0.500000000001539 0  -0.1 0.4500000000014195 0  -0.1 0.4000000000013 0  -0.1 0.3500000000011588 0  -0.1 0.3000000000010178 0  -0.1 0.2500000000008986 0  -0.1 0.2000000000007579 0  -0.1 0.1500000000006174 0  -0.1 0.1000000000005272 0  -0.1 0.05000000000040083 0  -0.1 2.671196597248127e-13 0  -0.1 -0.0499999999998666 0  -0.0500000000000906 -0.1 0  -1.730560139634463e-13 -0.1 0  0.04999999999975802 -0.1 0  0.09999999999961506 -0.1 0  0.1499999999994613 -0.1 0  0.199999999999302 -0.1 0  0.2499999999991446 -0.1 0  0.2999999999990088 -0.1 0  0.3499999999988296 -0.1 0  0.3999999999986936 -0.1 0  0.4499999999985143 -0.1 0  0.4999999999984002 -0.1 0  0.5499999999985247 -0.1 0  0.5999999999986493 -0.1 0  0.6499999999987955 -0.1 0  0.6999999999989417 -0.1 0  0.7499999999990659 -0.1 0  0.7999999999992116 -0.1 0  0.8499999999993573 -0.1 0  0.8999999999994526 -0.1 0  0.949999999999584 -0.1 0  0.9999999999997226 -0.1 0  1.049999999999861 -0.1 0  1.1 -0.0500000000000906 0  1.1 -1.730560139634463e-13 0  1.1 0.04999999999975802 0  1.1 0.09999999999961506 0  1.1 0.1499999999994613 0  1.1 0.199999999999302 0  1.1 0.2499999999991446 0  1.1 0.2999999999990088 0  1.1 0.3499999999988296 0  1.1 0.3999999999986936 0  1.1 0.4499999999985143 0  1.1 0.4999999999984002 0  1.1 0.5499999999985247 0  1.1 0.5999999999986493 0  1.1 0.6499999999987955 0  1.1 0.6999999999989417 0  1.1 0.7499999999990659 0  1.1 0.7999999999992116 0  1.1 0.8499999999993573 0  1.1 0.8999999999994526 0  1.1 0.949999999999584 0  1.1 0.9999999999997226 0  1.1 1.049999999999861 0  1.05000000000004 1.1 0  1.000000000000079 1.1 0  0.9500000000001624 1.1 0  0.9000000000003032 1.1 0  0.850000000000444 1.1 0  0.8000000000005848 1.1 0  0.7500000000007256 1.1 0  0.7000000000008665 1.1 0  0.6500000000010508 1.1 0  0.6000000000012352 1.1 0  0.5500000000014196 1.1 0  0.500000000001539 1.1 0  0.4500000000014195 1.1 0  0.4000000000013 1.1 0  0.3500000000011588 1.1 0  0.3000000000010178 1.1 0  0.2500000000008986 1.1 0  0.2000000000007579 1.1 0  0.1500000000006174 1.1 0  0.1000000000005272 1.1 0  0.05000000000040083 1.1 0  2.671196597248127e-13 1.1 0  -0.0499999999998666 1.1 0  0.2535566069399272 0.4695107757839923 0  0.2587866172216604 0.4407182334427929 0  0.2667381359405006 0.4134675335655417 0  0.2777200223581663 0.3874331571169287 0  0.2913371172855037 0.3634014217437751 0  0.3071307113037923 0.3413647166273019 0  0.3253204661506848 0.3207176756115399 0  0.3463982063119042 0.3020499352577108 0  0.3691470867444976 0.2866715891999563 0  0.3933178434096812 0.2741149406590522 0  0.4192717949404218 0.2643791043419888 0  0.4470159778558608 0.2574672803147825 0  0.4765614284201512 0.2535190474045143 0  0.5074134153781625 0.2524149606220557 0  0.5378439390311761 0.2549538801906587 0  0.5664382609900598 0.2606633445841003 0  0.5932353359081335 0.268931137991909 0  0.6184740955470424 0.2804572023512998 0  0.6419869767719171 0.2949262716563387 0  0.6638800604936124 0.3122350887561541 0  0.6832834023251698 0.3313114942523057 0  0.700911286675983 0.353050751738804 0  0.7156697588162879 0.3761548255234943 0  0.7279127337479295 0.4004372843784321 0  0.7378633482366911 0.4268244958828862 0  0.7446422703658183 0.4549444157772983 0  0.7485450461049554 0.4845642066674931 0  0.7483837327060849 0.5153661006756836 0  0.7442419504706133 0.5449900984574394 0  0.7374340307456313 0.5730500431791747 0  0.727538532269437 0.5994856595074671 0  0.7154024588455687 0.6240777679604487 0  0.7008546658923859 0.6474610367138088 0  0.6834286681162971 0.6693742099951848 0  0.6640304083160374 0.6886075682777186 0  0.6422942831647909 0.7057258693499459 0  0.6187401433930406 0.7200549342003335 0  0.5933807693287808 0.7314917901980927 0  0.5664509938156913 0.7396639482686501 0  0.5378462934392859 0.7453019865944427 0  0.5073990875560326 0.7478403270863424 0  0.4766605275976575 0.7467087077658591 0  0.4473535712722657 0.7425796075650232 0  0.4196077170305184 0.7352887524349314 0  0.3937747352230687 0.7253171059815878 0  0.3697748692566766 0.7127035418140385 0  0.3471712074407626 0.6973824710648958 0  0.325918805651232 0.6787237780031729 0  0.3075832149721359 0.6583547357514157 0  0.2915476966934515 0.6365152441760106 0  0.2778196690464432 0.6124843576026967 0  0.2667068156125559 0.5863965677601518 0  0.2586939947143712 0.5589581867386518 0  0.2535137411918903 0.5300306367068159 0  0.5013481770260512 0.6150685510727582 0  0.5070183688441571 0.3791027138388643 0  0.6293556504918731 0.4985516768391983 0  0.3647945875407146 0.499858163368643 0  0.4102032675737985 0.4224996035320159 0  0.4073255697763732 0.5773373796138961 0  0.5790084934682526 0.4057820459953759 0  0.5786211989335065 0.5943501895829122 0  0.4380415034462523 0.6441002790832778 0  0.4859566183734011 0.6824678327035838 0  0.5456101719126716 0.6807529744273021 0  0.4330095993840328 0.3520070100586884 0  0.4863279486748456 0.3158904674567326 0  0.5475125851145705 0.3190419999082985 0  0.6506919065472064 0.5881840459898202 0  0.6511880600365267 0.4121758066228453 0  0.3455982561573111 0.5762076975844175 0  0.3447910569755185 0.4230752410711336 0  0.3822608955795858 0.6392448446655411 0  0.3831030296772531 0.3597499799984423 0  0.5922737619712657 0.6517529826581149 0  0.5932155178671568 0.3477487211455896 0  0.6896234273429206 0.5000623579128156 0  0.6902039209296575 0.5551140596186322 0  0.6901895591061135 0.4456881448033205 0  0.3066649275275715 0.4537323756257939 0  0.297371204781879 0.5059543455261107 0  0.6357918934951388 0.3672465951332913 0  0.6363929480174628 0.6337706026005656 0  0.3045627858243397 0.556551476706133 0  0.4250733959872814 0.5132827956867921 0  0.4408757895627623 0.6930049737706174 0  0.4410419044789315 0.3071969319300781 0  0.3463721412425746 0.3789801901415966 0  0.346339453695042 0.6215742639322175 0  0.5631263290839591 0.524954846101832 0  0.5211392272883277 0.4399510145882369 0  0.5200896645630123 0.2891860211880993 0  0.5195825292997289 0.7106897671507203 0  0.4692390262547654 0.5729403883176314 0  0.4680311453654625 0.4451335429044236 0  0.3968177044039133 0.6705653205003254 0  0.3974066441108968 0.3297585422911472 0  0.603331073855889 0.457107457690944 0  0.6021074322753609 0.5414673298173615 0  0.5819577677649669 0.3148826226850153 0  0.5812899155597993 0.6850384870693093 0  0.3956417011052221 0.5311417176914756 0  0.3900669861054351 0.4650521503393916 0  0.4475425459935574 0.4177161696618194 0  0.7097961715689599 0.5306012846729884 0  0.7110418939888573 0.4682749483663283 0  0.5433196413788031 0.6100794339211084 0  0.5447620430624865 0.3893630334663949 0  0.6931900022536802 0.5897568238854171 0  0.6933346349562968 0.410273284715757 0  0.4293115172186762 0.6092194181905849 0  0.3036525965501733 0.4172832907841913 0  0.4724396238423936 0.7197533290775157 0  0.4724333128216644 0.2803968615156414 0  0.4609104968375007 0.6678855716183287 0  0.4585902600958846 0.3323851240185348 0  0.666648121676722 0.3752873464438273 0  0.6664150216040636 0.6249700166765795 0  0.6293561199890229 0.3342917202092817 0  0.6295865943607144 0.6661301110411538 0  0.2829540689113476 0.470998840969964 0  0.3078749806220267 0.5871229070767381 0  0.7219870946414025 0.5000051970114554 0  0.516909631801767 0.5648356607963195 0  0.283823570962825 0.5361765496165198 0  0.3193015404725986 0.3904354463406673 0  0.4623790671590698 0.6056614382564045 0  0.567377593454627 0.2898840228916595 0  0.5662535030543395 0.7103349922270896 0  0.35410892416844 0.5369015335442535 0  0.3234774922638695 0.525483014834025 0  0.561483
[...]
<PointData  Scalars="state"> 
<DataArray  type="Float64"  Name="state"  format="ascii">0.0000000000000000e+00  0.0000000000000000e+00  0.0000000000000000e+00  0.0000000000000000e+00  0.0000000000000000e+00  0.0000000000000000e+00  0.0000000000000000e+00  0.0000000000000000e+00  -1.0453265947353550e-02  1.3740259310126728e+00  0.0000000000000000e+00  0.0000000000000000e+00  0.0000000000000000e+00  0.0000000000000000e+00  0.0000000000000000e+00  0.0000000000000000e+00  0.0000000000000000e+00  0.0000000000000000e+00  0.0000000000000000e+00  0.0000000000000000e+00  0.0000000000000000e+00  0.0000000000000000e+00  0.0000000000000000e+00  0.0000000000000000e+00  0.0000000000000000e+00  0.0000000000000000e+00  0.0000000000000000e+00  0.0000000000000000e+00  0.0000000000000000e+00  0.0000000000000000e+00  0.0000000000000000e+00  0.0000000000000000e+00  0.0000000000000000e+00  0.0000000000000000e+00  0.0000000000000000e+00  0.0000000000000000e+00  0.0000000000000000e+00  0.0000000000000000e+00  0.0000000000000000e+00  0.0000000000000000e+00  0.0000000000000000e+00  0.0000000000000000e+00  0.0000000000000000e+00  0.0000000000000000e+00  0.0000000000000000e+00  0.0000000000000000e+00  0.0000000000000000e+00  0.0000000000000000e+00  0.0000000000000000e+00  0.0000000000000000e+00  0.0000000000000000e+00  0.0000000000000000e+00  0.0000000000000000e+00  0.0000000000000000e+00  0.0000000000000000e+00  0.0000000000000000e+00  0.0000000000000000e+00  0.0000000000000000e+00  0.0000000000000000e+00  0.0000000000000000e+00  0.0000000000000000e+00  0.0000000000000000e+00  0.0000000000000000e+00  0.0000000000000000e+00  0.0000000000000000e+00  0.0000000000000000e+00  0.0000000000000000e+00  0.0000000000000000e+00  0.0000000000000000e+00  0.0000000000000000e+00  0.0000000000000000e+00  0.0000000000000000e+00  0.0000000000000000e+00  0.0000000000000000e+00  0.0000000000000000e+00  0.0000000000000000e+00  0.0000000000000000e+00  0.0000000000000000e+00  0.0000000000000000e+00  0.0000000000000000e+00  0.0000000000000000e+00  0.0000000000000000e+00  0.0000000000000000e+00  0.0000000000000000e+00  0.0000000000000000e+00  0.0000000000000000e+00  0.0000000000000000e+00  0.0000000000000000e+00  0.0000000000000000e+00  0.0000000000000000e+00  0.0000000000000000e+00  0.0000000000000000e+00  0.0000000000000000e+00  0.0000000000000000e+00  0.0000000000000000e+00  0.0000000000000000e+00  0.0000000000000000e+00  0.0000000000000000e+00  0.0000000000000000e+00  0.0000000000000000e+00  0.0000000000000000e+00  0.0000000000000000e+00  0.0000000000000000e+00  0.0000000000000000e+00  0.0000000000000000e+00  0.0000000000000000e+00  0.0000000000000000e+00  0.0000000000000000e+00  0.0000000000000000e+00  0.0000000000000000e+00  0.0000000000000000e+00  0.0000000000000000e+00  0.0000000000000000e+00  0.0000000000000000e+00  0.0000000000000000e+00  0.0000000000000000e+00  0.0000000000000000e+00  0.0000000000000000e+00  0.0000000000000000e+00  0.0000000000000000e+00  0.0000000000000000e+00  0.0000000000000000e+00  0.0000000000000000e+00  0.0000000000000000e+00  0.0000000000000000e+00  0.0000000000000000e+00  0.0000000000000000e+00  0.0000000000000000e+00  0.0000000000000000e+00  0.0000000000000000e+00  0.0000000000000000e+00  0.0000000000000000e+00  0.0000000000000000e+00  0.0000000000000000e+00  0.0000000000000000e+00  0.0000000000000000e+00  0.0000000000000000e+00  0.0000000000000000e+00  0.0000000000000000e+00  0.0000000000000000e+00  0.0000000000000000e+00  0.0000000000000000e+00  0.0000000000000000e+00  0.0000000000000000e+00  0.0000000000000000e+00  0.0000000000000000e+00  0.0000000000000000e+00  0.0000000000000000e+00  0.0000000000000000e+00  0.0000000000000000e+00  0.0000000000000000e+00  0.0000000000000000e+00  0.0000000000000000e+00  0.0000000000000000e+00  0.0000000000000000e+00  0.0000000000000000e+00  0.0000000000000000e+00  0.0000000000000000e+00  0.0000000000000000e+00  0.0000000000000000e+00  0.0000000000000000e+00  0.0000000000000000e+00  0.0000000000000000e+00  0.0000000000000000e+00  0.0000000000000000e+00  0.0000000000000000e+00  0.0000000000000000e+00  0.0000000000000000e+00  0.0000000000000000e+00  0.0000000000000000e+00  0.0000000000000000e+00  0.0000000000000000e+00  0.0000000000000000e+00  0.0000000000000000e+00  0.0000000000000000e+00  0.0000000000000000e+00  0.0000000000000000e+00  0.0000000000000000e+00  -8.3089379315866123e-03  -9.0151676908120024e-03  -5.3694435031688276e-03  -5.7686565695304042e-03  -6.1917138172413160e-03  -8.0966614192378751e-03  -1.3449999319585051e-03  -5.4230319556206634e-03  -9.0263930676892229e-03  -8.6593133880106931e-03  -8.9178035722181342e-03  -7.9202511732651571e-03  -9.3907365144952713e-03  -8.6773789042236867e-03  -8.8811599845900289e-03  -8.9887956374495679e-03  -6.6963846565883285e-03  -8.1196510009799907e-03  -3.7315740780550577e-03  -6.2875150938780074e-03  -7.6042170003757592e-03  -2.9997087921904667e-03  -7.5974208207633502e-03  -8.4044837275365474e-03  -7.5861126536831492e-03  -9.8187675318686714e-03  -8.0051562909770040e-03  -7.8934034286385780e-03  -9.7023853631092588e-03  -7.3822599116078374e-03  -8.2389904018428314e-03  -7.4543682978987251e-03  -3.0966268441511582e-03  -7.8528766133624493e-03  -6.6579910643643839e-03  -3.8907506075140314e-03  -8.2519220363661185e-03  -6.7460841550384667e-03  -9.0122519814773028e-03  -8.9083752398701060e-03  -8.8259097933124728e-03  -9.5350151999019864e-03  -7.9877364710700827e-03  -8.7903034187460632e-03  -8.5735587030413389e-03  -9.0354044300307683e-03  -5.3967694482755946e-03  -1.5593395783494142e-03  -8.3096081345597986e-03  -6.7285450390210085e-03  -3.5256195618991837e-03  -8.3422742043412594e-03  -8.9956302317963782e-03  -7.9668069897131794e-03  9.2873367871170365e-01  8.9008071907249930e-01  8.5256605689842013e-01  8.2065347618740825e-01  9.1209124023838017e-01  8.9575054250150321e-01  8.7148526384814151e-01  8.7232841046463849e-01  5.3593034127125960e-01  1.8736314502135626e-01  1.5266104089350793e-01  4.6027652362385374e-01  1.7097253049635755e-01  1.4648164836839217e-01  2.4305140612073953e-01  2.3871906037182905e-01  2.7616395652642406e-01  2.6585703373959241e-01  1.8042300705362310e-01  1.8134793493358700e-01  2.1763754973048952e-01  2.0581015150458909e-01  1.4056052353649520e-01  1.0990916921027194e-01  1.1040990490767676e-01  1.0976809352291832e-01  8.5112086972036552e-02  1.2441768458224996e-01  1.1931997839564933e-01  8.8350667322308618e-02  1.1700077300148894e+00  9.3151269830037187e-02  9.2971538442258833e-02  1.1609706959552232e-01  1.1205507907782192e-01  1.2228981236991188e+00  1.2362872800579945e+00  6.5437829263011935e-02  6.6755203562393492e-02  1.1511262427980491e+00  1.2350358513520723e+00  8.4680695768624525e-02  9.4202821413356189e-02  9.3232548510105639e-01  9.4300351576691344e-01  8.0842104772722523e-02  8.2651888307045576e-02  9.5082542164167427e-01  9.0857410890988266e-01  1.0247809200668614e+00  6.8800834195561253e-02  6.4476483779288440e-02  9.1420664836169729e-01  9.1030090328671687e-01  6.6370797415454791e-02  6.6194662813342464e-02  8.5091207063653362e-01  6.5485983053935881e-02  5.8606214601764878e-02  5.8681065687637313e-02  2.8391679179378310e-01  2.9713409804896507e-01  7.7573551825787096e-02  7.8168664270372543e-02  7.6696053165147882e-02  7.5807757514468388e-02  6.2362113633643884e-02  6.5404002874613690e-02  5.5718220057645408e-02  1.2232443335287773e+00  5.6576930773393805e-02  6.4319100921078134e-02  9.3783416567963107e-01  5.8652387699991877e-02  5.9426305932472737e-02  6.5843885933042834e-01  2.1862673135725080e-01  4.4142325128928633e-01  4.5485142059450079e-01  6.3208148660397578e-01  6.5067775200972844e-01  6.1329162525043224e-01  6.3241890767024522e-01  6.3084746243760725e-01  6.5350175495491913e-01  6.4607473481412980e-01  7.2469139787448567e-01  4.4828179204887803e-01  6.8637383716482314e-02  6.1628699676670007e-02  6.2221478105654766e-02  6.9646418574398894e-01  5.4316122838602243e-01  6.1630395568651929e-02  6.2368415365492022e-02  1.2072386639069250e+00  5.7205153348396531e-01  5.5728667332330784e-01  8.2328342289628431e-01  5.6584895024074829e-02  5.6094763937635954e-02  2.9526984808190249e-01  6.7436049259828296e-02  6.3629767936565357e-02  5.4376081896523910e-02  5.3687004668062352e-02  3.8641713170542841e-01  1.8546696868914411e-01  1.8430837369299488e-01  4.8117260592844213e-02  5.2786773334295524e-02  5.1389762512026094e-02  5.0946451129748292e-02  5.3372579151421955e-02  5.3662800989442261e-02  5.7326171040760786e-02  5.8176340098531523e-02  3.8434474145259134e-01  2.2538508536792570e-01  2.1956237385117280e-01  1.0010768186686043e+00  3.4452323779063926e-01  3.3765156741341740e-01  1.9953086262713871e-01  1.1320717496354533e+00  5.6930138050382972e-01  5.8048845929277060e-01  8.7401275960152192e-01  5.4236125487272124e-01  5.4928361928695912e-01  5.0272746971932146e-02  5.0257755872317476e-02  4.7596157142366563e-02  4.3646740974877765e-02  4.3813653845111392e-02  2.0849885933423995e-01  1.0865748277403735e+00  1.5599659211292496e-01  1.8309391661819160e-01  9.8230080443914722e-02  9.9980025766357020e-02  5.7201655231616799e-02  6.6486835370801378e-01  4.7437361152564229e-02  4.7017927094398518e-02  1.4198756823267730e-01  1.4531125703379200e-01  1.0717211288161395e+00  9.9851078682226946e-01  4.4420170194407499e-02  4.4722811778953410e-02  6.6227789586603703e-01  1.0783857069608660e+00  1.1091257828129684e+00  9.2338037783087634e-02  9.1989882645318877e-02  4.2715700542510054e-01  4.3874613680800138e-02  1.1896219625777714e-01  7.3623721923863994e-01  7.4597205980470849e-01  5.6958886391712343e-02  1.2812118757980513e+00  4.6544699884360337e-02  4.6540965804392355e-02  2.0984562871471954e-01  2.1048266458249637e-01  9.1432858318012594e-02  9.2309173221746518e-02  1.0537451135585207e+00  2.2601660033946500e-01  2.2633495039681883e-01  8.0248151777607046e-01  4.6762724878294665e-02  4.6936119125729987e-02  4.9016021196300670e-02  4.9961278229934070e-02  4.5973554186542517e-02  4.6205066159752749e-02  7.8885337179797654e-01  8.6556173285716209e-01  1.9046863275063697e-01  1.9850824220634300e-01  4.9516515987438510e-02  1.0567703829687587e+00  7.9676653603237269e-01  8.7849590816025469e-01  2.1383305906252917e-01  7.8019544181847722e-01  7.8583488277823910e-01  1.2783277387115768e+00  2.9123509972853739e-01  2.6718747464907505e-01  5.0964123190000439e-02  5.1512769500156867e-02  5.3314699149783241e-02  -2.6997597866856491e-02  -2.6992961721503093e-02  -2.7112761926883531e-02  -2.7097435712098571e-02  -2.4397021268295672e-02  -2.4361481034703363e-02  -2.4955363053846800e-02  -2.4968403329861378e-02  -2.5117075607415201e-02  -2.5130510511216102e-02  -2.5515406719299256e-02  -2.5532924917215160e-02  -2.2440947570724741e-02  -2.2437702143986528e-02  -2.2215599617632347e-02  -2.2442876956515860e-02  -2.6433160558533467e-02  -2.6449754254951489e-02  -2.6215590567950229e-02  -2.6196382134213530e-02  -2.5412655954785538e-02  -2.5413060951946936e-02  -2.5386878128929580e-02  -2.5384029366595052e-02  -2.3250734038467811e-02  -2.3259893382420994e-02  -2.2999538086026568e-02  -2.3538275313311749e-02  -2.2989980915551638e-02  -2.3523758890130950e-02  -2.3691060737612027e-02  -2.3677701524177936e-02  -2.2166336226816442e-02  -1.9137576322865321e-02  -2.2153010429309179e-02  -1.9130528739613371e-02  -2.3785997981356378e-02  -2.3796714855234252e-02  -1.8568028283483255e-02  -1.8569367030592809e-02  -2.3511008324847680e-02  -2.3460803711235191e-02  -2.1568598470545246e-02  -2.1557643502624266e-02  -2.2629619299513345e-02  -2.1972700226846994e-02  -2.1957972651481097e-02  -2.2614451932734998e-02  -2.2634398574189991e-02  -2.1736738927073840e-02  -2.1734602349200587e-02  -2.1528987956421931e-02  -2.1539191287194573e-02  -2.2475051874469985e-02  -1.8266697443853556e-02  -1.9633655571148354e-02  -1.8051280266621113e-02  -1.8059794707108116e-02  -1.7760311251940632e-02  -1.7336145104016456e-02  -2.6613376406263833e-02  -2.6623910379626935e-02  -2.7161736977380418e-02  -2.7166356078643983e-02  -2.3155474681465182e-02  -2.2846111923811717e-02  -2.3206006585652229e-02  -2.2903852278488169e-02  -2.6816202029311721e-02  -2.6804753381116524e-02  -2.7449671661456967e-02  -2.7467234373452373e-02  -2.3688678294657053e-02  -2.3664957031433540e-02  -1.7688455518467247e-02  -1.7750143522060544e-02  -1.7149409704636815e-02  -1.7128011589784969e-02  -2.2765428853052792e-02  -2.2757013758806139e-02  -1.7307482890175876e-02  -1.7291735696323984e-02  -2.2508136940904495e-02  -2.2540020582125852e-02  -2.1178212076932591e-02  -2.3150344994387506e-02  -2.1154921695307520e-02  -2.3147891168214609e-02  -2.1553819433384067e-02  -2.1567723317246532e-02  -2.1175624876364926e-02  -2.1155165615680833e-02  -2.0093792068275055e-02  -2.0171751979700156e-02  -2.1201777415460192e-02  -2.1148554218814019e-02  -2.3282634353144895e-02  -2.3290950769032252e-02  -2.3627509576741514e-02  -2.3635796261966376e-02  -2.0468880623782913e-02  -2.0506904686331037e-02  -2.3688709863757106e-02  -2.3674932293505910e-02  -2.0193955485360002e-02  -2.0184190923969322e-02  -2.5650633343170953e-02  -2.5660916830302825e-02  -2.1369815973173487e-02  -2.1390802531691653e-02  -2.0621218259799363e-02  -2.0608294402320048e-02  -1.5463379250838103e-02  -1.5470141032414569e-02  -2.5930595139794198e-02  -2.5949549955294235e-02  -2.0301878776297647e-02  -2.0251168194705793e-02  -1.5810362654464692e-02  -1.5806995203876368e-02  -1.5248032388391458e-02  -1.5240381950522498e-02  -1.4396752079870935e-02  -2.4173464893977370e-02  -2.4167723991909817e-02  -2.3590513947285709e-02  -2.3602805424339884e-02  -2.3847585550103641e-02  -2.3893961121279547e-02  -2.3311079630555540e-02  -2.3311009107347166e-02  -2.6886304625832004e-02  -2.6895538227367149e-02  -2.6949618563222880e-02  -2.6958100148554268e-02  -2.0389563757530829e-02  -2.0340795915037596e-02  -2.3077501156872536e-02  -2.3153239882053585e-02  -2.0335394306662327e-02  -2.0289331970713705e-02  -1.5092766716172063e-02  -1.4869875841533983e-02  -1.4863244843935896e-02  -8.6880350136078616e-03  -8.6858910730865154e-03  -8.5825630720767817e-03  -8.5819608940477781e-03  -1.3947234522257670e-02  -1.3944206643068975e-02  -2.5120247368100711e-02  -2.5107192665997390e-02  -2.5382383715734032e-02  -2.5384611195668681e-02  -2.5019073503815274e-02  -2.5035324675328912e-02  -2.7678901311283158e-02  -2.7660395891565007e-02  -2.4757738290183594e-02  -2.4749465450580752e-02  -2.7691672604640522e-02  -2.7696236253330269e-02  -1.9943296941535120e-02  -1.9958656354491965e-02  -1.6958899036063041e-02  -1.6960488998308869e-02  -1.8908058552098411e-02  -1.9068701280320125e-02  -1.9189083932476945e-02  -2.2345625386229716e-02  -2.2080129462710225e-02  -1.4122840171345687e-02  -1.4115075036391866e-02  -2.5724128192769681e-02  -2.5727605365312583e-02  -2.4134490260871753e-02  -2.4118640684459541e-02  -2.4632249182242483e-02  -2.4640675695304943e-02  -2.3906277370601213e-02  -2.3905510612208927e-02  -1.8589089673851894e-02  -1.8701591241275208e-02  -2.2855632192602681e-02  -2.2858397249818065e-02  -2.2969916061650532e-02  -2.3119951326757215e-02  -1.6106470146654180e-02  -1.6069820805520618e-02  -1.6059370869264320e-02  -2.5997452573569838e-02  -2.5980599643639690e-02  -1.6864036781094684e-02  -1.6808370869201703e-02  -1.5297082192433670e-02  -1.5297118689511434e-02  -2.0548784574222531e-02  -2.5162162703074111e-02  -2.5172177763068120e-02  -1.5160367510135463e-02  -1.5167311205448935e-02  -1.8440718840391602e-02  -2.4005986945844732e-02  -1.8421659387218799e-02  -2.4008816006055710e-02  -1.4189714614253394e-02  -1.4180751543784559e-02  -2.2795855504244223e-02  -2.2810780715683182e-02  -2.3111572885829611e-02  -2.3132443528530305e-02  -2.0018719161123449e-02  -2.0059417570709181e-02  -2.5673634457663439e-02  -2.5685919999826848e-02  -1.7856721367471670e-02  -2.3709657345084224e-02  -1.7934172661713810e-02  -2.3737763621176161e-02  -2.2491469290648863e-02  -2.2496247529796332e-02  -1.5828762964596323e-02  -1.5853770445492570e-02  -1.6058662713419488e-02  -1.6051067634181296e-02  -1.3320554086830964e-02  -1.3321957262668556e-02  -2.3364672665032792e-02  -2.3349630238028368e-02  -2.3860695126657464e-02  -2.3832984325430094e-02  -2.3786871720520669e-02  -2.3800104360939371e-02  -1.5215341969490613e-02  -1.5205226514423810e-02  -2.4792758443084158e-02  -2.4810594223854881e-02  -2.6757773877687348e-02  -2.6762653441999081e-02  -2.5110863067564250e-02  -2.5115076995189389e-02  -1.9720997661326293e-02  -1.9763635281110824e-02  -2.6100324215811679e-02  -2.6117666078512156e-02  -2.7000838999927033e-02  -2.6981456189397183e-02  -1.9196003728452284e-02  -1.9302570021417342e-02  -1.9557406198353149e-02  -1.9498629237132914e-02  -2.2699086528412286e-02  -2.2714348056991511e-02  -1.2955994302121715e-02  -1.2959047511460049e-02  -1.9308015320753238e-02  -1.9188204480595286e-02  -2.5174898516233224e-02  -2.4727955913806617e-02  -2.5144902958454996e-02  -2.4699814800331964e-02  -2.6858524174814161e-02  -2.6854168190240234e-02  -2.7704394568826327e-02  -2.7705385062099321e-02  -1.7975280731073941e-02  -1.8173693312089720e-02  -2.1824633434920179e-02  -2.1833880963777832e-02  -2.6292276875068254e-02  -2.6300049338762888e-02  -2.7834363208232318e-02  -2.7817418724774893e-02  -2.4147879411857781e-02  -2.4132288212928527e-02  -2.3881475426381298e-02  -2.3926091202160937e-02  -2.0012526715187811e-02  -1.5480542659494802e-02  -1.5484291110103958e-02  -2.0857187688260337e-02  -1.5833366445473375e-02  -1.5932969168667131e-02  -1.5950657386594319e-02  -1.4887923858701340e-02  -1.2500564176314859e-02  -1.2500418292858121e-02  -1.9069081443184720e-02  -1.8929030135022534e-02  -1.2793606112577490e-02  -1.2790998256949845e-02  -1.4189744498733229e-02  -1.5789260075966711e-02  -1.5803323801423713e-02  -1.9107537907966439e-02  -1.9129636866976968e-02  -1.4106602679125831e-02  -1.4101428214018708e-02  -2.3186555735423674e-02  -2.3153051384304488e-02  -2.3745550383714131e-02  -2.3750263192893851e-02  -2.6912151033335118e-02  -2.6893741984856591e-02  -2.3335956902593873e-02  -2.3347922139160340e-02  -2.3045296406020675e-02  -2.6235393043602621e-02  -2.6245271537172984e-02  -2.4690590941581277e-02  -2.4695131918373883e-02  -2.2904946403901557e-02  -1.8404103061489891e-02  -1.8263099495142397e-02  -2.5716603550379250e-02  -2.5729936266868644e-02  -1.8784248488657396e-02  -1.8957794235425977e-02  -1.4385068163905692e-02  -1.4386569026800602e-02  -1.8657667206406971e-02  -1.8556477086989109e-02  -1.4394163127259675e-02  -1.4423304246855107e-02  -1.7992485352205139e-02  -1.8472241525168718e-02  -2.3043617012758189e-02  -1.3963588387263266e-02  -2.1960868834132771e-02  -2.1977815871108964e-02  -2.0992788969279544e-02  -2.0988839492347731e-02  -2.2193250164707145e-02  -2.2199428124688832e-02  -2.1976387294009799e-02  -2.3540620618690191e-02  -2.1970376639323195e-02  -2.3514642543136826e-02  -2.6601532707751962e-02  -2.6618909957084422e-02  -2.5058050544060691e-02  -2.5045375573264809e-02  -2.3863374452509245e-02  -2.3865839021185217e-02  -2.2351100273736282e-02  -2.2325606521740652e-02  -2.5349107100411047e-02  -2.5376188093492628e-02  -2.6136478571482675e-02  -2.6132045129356414e-02  -2.3698734568493130e-02  -2.3708472263993065e-02  -2.0226098365139267e-02  -2.0213726284505497e-02  -2.1341116919976390e-02  -2.1331280606896177e-02  -2.1577274645292233e-02  -2.1565533907348600e-02  -2.5008113620146322e-02  -2.5013556774154205e-02  -1.8731513117791487e-02  -1.8687745452985603e-02  -1.8464000024996843e-02  -1.8275446363191596e-02  -2.4204170184220296e-02  -2.4240489758955455e-02  -2.3286999007428012e-02  -2.3294891295933682e-02  -1.3646449973061543e-02  -1.3650312158233202e-02  -2.1395882107979738e-02  -2.1424944607934523e-02  -2.1652855379565610e-02  -2.1564627553167105e-02  -2.3307225477448793e-02  -2.3324094446480717e-02  -1.8824339084308944e-02  -1.8926121585561527e-02  -2.0377600288675683e-02  -2.0359337653920694e-02  -2.3971965234287324e-02  -2.3955269139634170e-02  -2.4821492377293652e-02  -2.48066940