<?xml version="1.0"?>
<VTKFile type="UnstructuredGrid"  version="0.1"  >
<UnstructuredGrid>
<Piece  NumberOfPoints="1286" NumberOfCells="2474">
<Points>
<DataArray  type="Float64"  NumberOfComponents="3"  format="ascii">0 0 0  0 1 0  1 1 0  1 0 0  1.1 -0.1 0  -0.1 -0.1 0  1.1 1.1 0  -0.1 1.1 0  0.2522402109351431 0.4996939889969965 0  0.4995461009243864 0.4999485846277327 0  0 0.9499999999997918 0  0 0.8999999999995836 0  0 0.8499999999996529 0  0 0.7999999999999998 0  0 0.7500000000003466 0  0 0.7000000000006934 0  0 0.6500000000010401 0  0 0.6000000000013869 0  0 0.5500000000017335 0  0 0.5000000000020587 0  0 0.4500000000018723 0  0 0.4000000000016644 0  0 0.3500000000014564 0  0 0.3000000000012483 0  0 0.2500000000010403 0  0 0.2000000000008322 0  0 0.1500000000006241 0  0 0.100000000000416 0  0 0.05000000000020799 0  0.04999999999989965 0 0  0.09999999999981467 0 0  0.1499999999997036 0 0  0.1999999999995579 0 0  0.2499999999994121 0 0  0.2999999999992664 0 0  0.3499999999991206 0 0  0.3999999999989749 0 0  0.4499999999988292 0 0  0.4999999999986943 0 0  0.5499999999988151 0 0  0.5999999999989468 0 0  0.6499999999990784 0 0  0.69999999999921 0 0  0.7499999999993417 0 0  0.7999999999994734 0 0  0.8499999999996051 0 0  0.8999999999997368 0 0  0.9499999999998684 0 0  1 0.04999999999989965 0  1 0.09999999999981467 0  1 0.1499999999997036 0  1 0.1999999999995579 0  1 0.2499999999994121 0  1 0.2999999999992664 0  1 0.3499999999991206 0  1 0.3999999999989749 0  1 0.4499999999988292 0  1 0.4999999999986943 0  1 0.5499999999988151 0  1 0.5999999999989468 0  1 0.6499999999990784 0  1 0.69999999999921 0  1 0.7499999999993417 0  1 0.7999999999994734 0  1 0.8499999999996051 0  1 0.8999999999997368 0  1 0.9499999999998684 0  0.9499999999997918 1 0  0.8999999999995836 1 0  0.8499999999996529 1 0  0.7999999999999998 1 0  0.7500000000003466 1 0  0.7000000000006934 1 0  0.6500000000010401 1 0  0.6000000000013869 1 0  0.5500000000017335 1 0  0.5000000000020587 1 0  0.4500000000018723 1 0  0.4000000000016644 1 0  0.3500000000014564 1 0  0.3000000000012483 1 0  0.2500000000010403 1 0  0.2000000000008322 1 0  0.1500000000006241 1 0  0.100000000000416 1 0  0.05000000000020799 1 0  -0.1 1.05000000000004 0  -0.1 1.000000000000079 0  -0.1 0.9500000000001624 0  -0.1 0.9000000000003032 0  -0.1 0.850000000000444 0  -0.1 0.8000000000005848 0  -0.1 0.7500000000007256 0  -0.1 0.7000000000008665 0  -0.1 0.6500000000010508 0  -0.1 0.6000000000012352 0  -0.1 0.5500000000014196 0  -0.1 0.500000000001539 0  -0.1 0.4500000000014195 0  -0.1 0.4000000000013 0  -0.1 0.3500000000011588 0  -0.1 0.3000000000010178 0  -0.1 0.2500000000008986 0  -0.1 0.2000000000007579 0  -0.1 0.1500000000006174 0  -0.1 0.1000000000005272 0  -0.1 0.05000000000040083 0  -0.1 2.671196597248127e-13 0  -0.1 -0.0499999999998666 0  -0.0500000000000906 -0.1 0  -1.730560139634463e-13 -0.1 0  0.04999999999975802 -0.1 0  0.09999999999961506 -0.1 0  0.1499999999994613 -0.1 0  0.199999999999302 -0.1 0  0.2499999999991446 -0.1 0  0.2999999999990088 -0.1 0  0.3499999999988296 -0.1 0  0.3999999999986936 -0.1 0  0.4499999999985143 -0.1 0  0.4999999999984002 -0.1 0  0.5499999999985247 -0.1 0  0.5999999999986493 -0.1 0  0.6499999999987955 -0.1 0  0.6999999999989417 -0.1 0  0.7499999999990659 -0.1 0  0.7999999999992116 -0.1 0  0.8499999999993573 -0.1 0  0.8999999999994526 -0.1 0  0.949999999999584 -0.1 0  0.9999999999997226 -0.1 0  1.049999999999861 -0.1 0  1.1 -0.0500000000000906 0  1.1 -1.730560139634463e-13 0  1.1 0.04999999999975802 0  1.1 0.09999999999961506 0  1.1 0.1499999999994613 0  1.1 0.199999999999302 0  1.1 0.2499999999991446 0  1.1 0.2999999999990088 0  1.1 0.3499999999988296 0  1.1 0.3999999999986936 0  1.1 0.4499999999985143 0  1.1 0.4999999999984002 0  1.1 0.5499999999985247 0  1.1 0.5999999999986493 0  1.1 0.6499999999987955 0  1.1 0.6999999999989417 0  1.1 0.7499999999990659 0  1.1 0.7999999999992116 0  1.1 0.8499999999993573 0  1.1 0.8999999999994526 0  1.1 0.949999999999584 0  1.1 0.9999999999997226 0  1.1 1.049999999999861 0  1.05000000000004 1.1 0  1.000000000000079 1.1 0  0.9500000000001624 1.1 0  0.9000000000003032 1.1 0  0.850000000000444 1.1 0  0.8000000000005848 1.1 0  0.7500000000007256 1.1 0  0.7000000000008665 1.1 0  0.6500000000010508 1.1 0  0.6000000000012352 1.1 0  0.5500000000014196 1.1 0  0.500000000001539 1.1 0  0.4500000000014195 1.1 0  0.4000000000013 1.1 0  0.3500000000011588 1.1 0  0.3000000000010178 1.1 0  0.2500000000008986 1.1 0  0.2000000000007579 1.1 0  0.1500000000006174 1.1 0  0.1000000000005272 1.1 0  0.05000000000040083 1.1 0  2.671196597248127e-13 1.1 0  -0.0499999999998666 1.1 0  0.2538462371614953 0.4695143372503058 0  0.2589261121397974 0.4407665343536089 0  0.2668375340287501 0.4135624020134733 0  0.2778516304354462 0.3875544535420553 0  0.2915028318200276 0.363533877537244 0  0.3073274100656078 0.3414853372616738 0  0.3255815856542417 0.3208723683271883 0  0.3466229933264823 0.3021854479669628 0  0.3692869652938838 0.2867054446406743 0  0.3933828788202239 0.2741356730472478 0  0.4192560104740808 0.264462600272431 0  0.4469719065567235 0.2576689061046567 0  0.476524674398876 0.2538589221754425 0  0.5074097211725577 0.252792471489836 0  0.5378898507314135 0.2552005880895261 0  0.5664600494064331 0.2607485062312275 0  0.5931824137588088 0.2689761574714853 0  0.6183523790182964 0.2805205795198482 0  0.6418000334442888 0.2950639940226841 0  0.6636549666120364 0.3124154367371434 0  0.6830662906485503 0.3315199955495761 0  0.700757942966748 0.3532325082630847 0  0.7156704383168524 0.3762781234085621 0  0.727948027375158 0.4005146828023206 0  0.7378086557713143 0.4268874651889297 0  0.7444665436616736 0.4549997877539295 0  0.7482108624321906 0.484596541390006 0  0.7480364821944533 0.5153272071180489 0  0.7440300903760889 0.5449382561409704 0  0.7373405668554288 0.5729701989082687 0  0.7275390085078545 0.5993920294519072 0  0.7153711378757813 0.6239720866650535 0  0.7006858084395444 0.6473183335966272 0  0.6832145439638139 0.6692151793807497 0  0.6638204261590408 0.6884760370418189 0  0.6421180741449366 0.7056277835624841 0  0.618616606556198 0.7200151848051576 0  0.5933045540631684 0.7314602316781339 0  0.5664305758661261 0.7395817430568749 0  0.5378463182763895 0.7450559319662905 0  0.5073387135366821 0.7474706552741287 0  0.4766072630814306 0.7463834181327819 0  0.4473632211615184 0.7424030135902727 0  0.4196361814222946 0.7352278945270599 0  0.3938708185881342 0.7253092665627423 0  0.3699423512666438 0.7126768773426577 0  0.3474124798939842 0.6972447063422 0  0.3261641436043281 0.6785576942852097 0  0.3077381495586604 0.6582426522106932 0  0.2916719509702639 0.6364370418570979 0  0.27791415322457 0.6124364914051328 0  0.2667935396214203 0.5863451702161884 0  0.258825096296722 0.5588846851449408 0  0.2537971244638543 0.5299501828651124 0  0.5013429578567266 0.6150430798151343 0  0.5070154601306663 0.3791361401449983 0  0.6293219039399381 0.4985553798980394 0  0.3648360719187845 0.4998553982244353 0  0.4102302222875051 0.4225150347940715 0  0.4073526039339671 0.5773235268147654 0  0.5789878177387143 0.4058094187195207 0  0.5785942440826652 0.5943316437673196 0  0.4380668056153852 0.6440647207059106 0  0.4859506050313225 0.6823727570050753 0  0.5455785859800381 0.6806779117207035 0  0.4330358686383418 0.352050654416217 0  0.4863270303916264 0.3159978126002219 0  0.5474956456395541 0.3191264658263434 0  0.6506390706533753 0.5881464929575609 0  0.6511441274816933 0.412225024092847 0  0.3456590809433498 0.5761813250157699 0  0.3448590896944828 0.4231045732120995 0  0.38233708599021 0.6392012339774193 0  0.3831774169355096 0.3597987925618208 0  0.5922191852296089 0.6517104496286302 0  0.5931683636316689 0.3478070309482891 0  0.6895147625610717 0.5000631406672632 0  0.6901182525091427 0.5550753916155143 0  0.6901172852210014 0.4457285453001568 0  0.3067808237537036 0.453754472407851 0  0.2975289869879701 0.5059312471595554 0  0.6357193648434842 0.3673242541246671 0  0.6363124429478377 0.6337125271547667 0  0.3046690595594117 0.556512458470987 0  0.425090159424354 0.5132806325242609 0  0.4409037526645145 0.6929213911479112 0  0.4410558884974601 0.3072919244158957 0  0.346474586871706 0.3790432954492196 0  0.3464325869039933 0.6215203175319691 0  0.5631078730334547 0.5249525594630133 0  0.5211313374562585 0.439966035289289 0  0.5200888075376647 0.2893607657822788 0  0.5195570340369059 0.7105235604348581 0  0.4692440870658182 0.5729274728158023 0  0.4680364876431448 0.4451456093159336 0  0.3969001854532811 0.6705135810191016 0  0.3974778096089399 0.3298162971786759 0  0.6033075205832195 0.4571232308755161 0  0.6020808088649193 0.5414596739282658 0  0.5819099996495553 0.3149574561449858 0  0.5812299307485658 0.684978261428741 0  0.3956694640739336 0.5311350026973815 0  0.3900985872259522 0.4650587472608204 0  0.4475564891709278 0.4177335147468942 0  0.709644778854528 0.530573248831551 0  0.7109024408887077 0.4683040492319575 0  0.543301052354203 0.6100569792502357 0  0.5447492662153651 0.3893925032490446 0  0.6931234304082322 0.5896897435132264 0  0.693287229547187 0.4103463481331731 0  0.4293360023491013 0.6091981806068166 0  0.3037623595745054 0.4173441822646237 0  0.4724250713043829 0.7195627462037054 0  0.4724194887897362 0.2806011754929078 0  0.4609222852555675 0.6678245462376231 0  0.4586010722826152 0.3324519936603548 0  0.6665660587397408 0.3753896698272907 0  0.666322789455388 0.6248902696968552 0  0.629247370438775 0.3343919603368269 0  0.629475252827822 0.6660564769055513 0  0.2831429653380447 0.4710028492049949 0  0.3079681807253022 0.5870772861597037 0  0.7217799493650122 0.5000042655759466 0  0.5169003468244411 0.5648248565573576 0  0.2839902856459966 0.5361294997383385 0  0.3194165447845937 0.3905105114640432 0  0.4623879727542319 0.6056398557451799 0  0.5673553125318026 0.2899805853899077 0  0.5662086084454352 0.7102465711841869 0  0.3541588647394391 0.5368880820987273 0  0.3235659656832429 0.5254631887267085 0  0.5614610655922256
[...]
<PointData  Scalars="state"> 
<DataArray  type="Float64"  Name="state"  format="ascii">0.0000000000000000e+00  0.0000000000000000e+00  0.0000000000000000e+00  0.0000000000000000e+00  0.0000000000000000e+00  0.0000000000000000e+00  0.0000000000000000e+00  0.0000000000000000e+00  -1.0471286981636092e-02  1.3715063103486331e+00  0.0000000000000000e+00  0.0000000000000000e+00  0.0000000000000000e+00  0.0000000000000000e+00  0.0000000000000000e+00  0.0000000000000000e+00  0.0000000000000000e+00  0.0000000000000000e+00  0.0000000000000000e+00  0.0000000000000000e+00  0.0000000000000000e+00  0.0000000000000000e+00  0.0000000000000000e+00  0.0000000000000000e+00  0.0000000000000000e+00  0.0000000000000000e+00  0.0000000000000000e+00  0.0000000000000000e+00  0.0000000000000000e+00  0.0000000000000000e+00  0.0000000000000000e+00  0.0000000000000000e+00  0.0000000000000000e+00  0.0000000000000000e+00  0.0000000000000000e+00  0.0000000000000000e+00  0.0000000000000000e+00  0.0000000000000000e+00  0.0000000000000000e+00  0.0000000000000000e+00  0.0000000000000000e+00  0.0000000000000000e+00  0.0000000000000000e+00  0.0000000000000000e+00  0.0000000000000000e+00  0.0000000000000000e+00  0.0000000000000000e+00  0.0000000000000000e+00  0.0000000000000000e+00  0.0000000000000000e+00  0.0000000000000000e+00  0.0000000000000000e+00  0.0000000000000000e+00  0.0000000000000000e+00  0.0000000000000000e+00  0.0000000000000000e+00  0.0000000000000000e+00  0.0000000000000000e+00  0.0000000000000000e+00  0.0000000000000000e+00  0.0000000000000000e+00  0.0000000000000000e+00  0.0000000000000000e+00  0.0000000000000000e+00  0.0000000000000000e+00  0.0000000000000000e+00  0.0000000000000000e+00  0.0000000000000000e+00  0.0000000000000000e+00  0.0000000000000000e+00  0.0000000000000000e+00  0.0000000000000000e+00  0.0000000000000000e+00  0.0000000000000000e+00  0.0000000000000000e+00  0.0000000000000000e+00  0.0000000000000000e+00  0.0000000000000000e+00  0.0000000000000000e+00  0.0000000000000000e+00  0.0000000000000000e+00  0.0000000000000000e+00  0.0000000000000000e+00  0.0000000000000000e+00  0.0000000000000000e+00  0.0000000000000000e+00  0.0000000000000000e+00  0.0000000000000000e+00  0.0000000000000000e+00  0.0000000000000000e+00  0.0000000000000000e+00  0.0000000000000000e+00  0.0000000000000000e+00  0.0000000000000000e+00  0.0000000000000000e+00  0.0000000000000000e+00  0.0000000000000000e+00  0.0000000000000000e+00  0.0000000000000000e+00  0.0000000000000000e+00  0.0000000000000000e+00  0.0000000000000000e+00  0.0000000000000000e+00  0.0000000000000000e+00  0.0000000000000000e+00  0.0000000000000000e+00  0.0000000000000000e+00  0.0000000000000000e+00  0.0000000000000000e+00  0.0000000000000000e+00  0.0000000000000000e+00  0.0000000000000000e+00  0.0000000000000000e+00  0.0000000000000000e+00  0.0000000000000000e+00  0.0000000000000000e+00  0.0000000000000000e+00  0.0000000000000000e+00  0.0000000000000000e+00  0.0000000000000000e+00  0.0000000000000000e+00  0.0000000000000000e+00  0.0000000000000000e+00  0.0000000000000000e+00  0.0000000000000000e+00  0.0000000000000000e+00  0.0000000000000000e+00  0.0000000000000000e+00  0.0000000000000000e+00  0.0000000000000000e+00  0.0000000000000000e+00  0.0000000000000000e+00  0.0000000000000000e+00  0.0000000000000000e+00  0.0000000000000000e+00  0.0000000000000000e+00  0.0000000000000000e+00  0.0000000000000000e+00  0.0000000000000000e+00  0.0000000000000000e+00  0.0000000000000000e+00  0.0000000000000000e+00  0.0000000000000000e+00  0.0000000000000000e+00  0.0000000000000000e+00  0.0000000000000000e+00  0.0000000000000000e+00  0.0000000000000000e+00  0.0000000000000000e+00  0.0000000000000000e+00  0.0000000000000000e+00  0.0000000000000000e+00  0.0000000000000000e+00  0.0000000000000000e+00  0.0000000000000000e+00  0.0000000000000000e+00  0.0000000000000000e+00  0.0000000000000000e+00  0.0000000000000000e+00  0.0000000000000000e+00  0.0000000000000000e+00  0.0000000000000000e+00  0.0000000000000000e+00  0.0000000000000000e+00  0.0000000000000000e+00  0.0000000000000000e+00  0.0000000000000000e+00  0.0000000000000000e+00  0.0000000000000000e+00  0.0000000000000000e+00  0.0000000000000000e+00  0.0000000000000000e+00  0.0000000000000000e+00  0.0000000000000000e+00  0.0000000000000000e+00  0.0000000000000000e+00  0.0000000000000000e+00  0.0000000000000000e+00  -8.3617313996846836e-03  -9.1288111991141632e-03  -5.4909114894082468e-03  -5.8752955251263304e-03  -6.2662949140567447e-03  -8.1773251686891538e-03  -1.4129580715411180e-03  -5.4856672526385486e-03  -9.1382474047906267e-03  -8.7984475108766631e-03  -9.0509585839026758e-03  -8.0031807659636852e-03  -9.4178696425908110e-03  -8.6818147507067688e-03  -8.9458706614241584e-03  -9.1196333456740070e-03  -6.8292301035492425e-03  -8.2280296866406120e-03  -3.8032385519391906e-03  -6.3174816305947646e-03  -7.6441695992479708e-03  -3.0760843236899362e-03  -7.7214596080511363e-03  -8.5535920713065948e-03  -7.7083102605112440e-03  -9.8989376679494596e-03  -8.0327846586882527e-03  -7.9227064875797299e-03  -9.7716634944863285e-03  -7.4898634794947324e-03  -8.3738886540820727e-03  -7.5705382415601407e-03  -3.1695877888204831e-03  -7.9018168055828581e-03  -6.6966728997285502e-03  -3.9726214797459808e-03  -8.3605391050309164e-03  -6.8723634669356050e-03  -9.1312515081163198e-03  -8.9628446856595285e-03  -8.8314031832079174e-03  -9.5601264823798344e-03  -8.0780712723301559e-03  -8.9190991894392158e-03  -8.7041791657986953e-03  -9.1393171125754482e-03  -5.4488881229504257e-03  -1.6098847084974575e-03  -8.3934088593076994e-03  -6.8195417818255437e-03  -3.6482016710084066e-03  -8.4564168638753597e-03  -9.0994239782883693e-03  -8.0191709560841224e-03  9.2696234045642389e-01  8.8853672308862397e-01  8.5096218410207702e-01  8.1800725676956787e-01  9.1011856052209172e-01  8.9386417443689237e-01  8.6998392327578300e-01  8.7078280063813085e-01  5.3374180084165046e-01  1.8652968288544783e-01  1.5174721138787087e-01  4.5813004253381356e-01  1.7021908910550523e-01  1.4557293973651941e-01  2.4175233701276863e-01  2.3745993725425488e-01  2.7466346372296346e-01  2.6411122759149913e-01  1.7963191405488030e-01  1.8045174879128922e-01  2.1645615893330267e-01  2.0459113147986813e-01  1.4009363332374736e-01  1.0941532198817215e-01  1.0988926704659552e-01  1.0921915277781920e-01  8.5030062188197808e-02  1.2387214505165815e-01  1.1880569157996579e-01  8.8033115719124810e-02  1.1674144950184053e+00  9.2721374990196281e-02  9.2528919155735065e-02  1.1568481118773549e-01  1.1169628279849174e-01  1.2205361888699340e+00  1.2338255767481452e+00  6.5301520484133208e-02  6.6638367216954722e-02  1.1485276019908168e+00  1.2325452004077075e+00  8.4267798908713609e-02  9.3729908736744985e-02  9.3005638602818785e-01  9.4077542510620060e-01  8.0397922423720944e-02  8.2214894775049077e-02  9.4869234245797851e-01  9.0653698315126052e-01  1.0221991827496257e+00  6.8587726728265117e-02  6.4273900939037176e-02  9.1211038594062355e-01  9.0821153995295723e-01  6.6091668360422601e-02  6.5874021976985886e-02  8.4925145973407723e-01  6.5233689120616944e-02  5.8499702053358207e-02  5.8593674905906265e-02  2.8194365516696096e-01  2.9512516890937801e-01  7.7407499081019238e-02  7.8002892852059649e-02  7.6555523982016621e-02  7.5652751875150318e-02  6.2170897559343012e-02  6.5125742805057771e-02  5.5693610931701248e-02  1.2206930732002992e+00  5.6493590913747713e-02  6.4128544125005293e-02  9.3555999253618016e-01  5.8346616498021586e-02  5.9146626688047654e-02  6.5561517387492108e-01  2.1698986177177873e-01  4.3931301978889553e-01  4.5280473597395537e-01  6.2893257199329045e-01  6.4686988645428767e-01  6.0895739770291413e-01  6.2951224158879959e-01  6.2769566822634260e-01  6.5063654559435224e-01  6.4271146883863650e-01  7.2249609463724862e-01  4.4490589945480841e-01  6.8402010704377583e-02  6.1289090060059899e-02  6.1906783762398866e-02  6.9453861759765689e-01  5.3957363112641110e-01  6.1592124092844598e-02  6.2334182366657220e-02  1.2048341331648666e+00  5.6876580479452132e-01  5.5359631788658081e-01  8.2145131074655708e-01  5.6307403137789029e-02  5.5786964006602574e-02  2.9270380580427080e-01  6.7326391210104156e-02  6.3490548785144998e-02  5.4197662135863661e-02  5.3503902271936132e-02  3.8417701389652276e-01  1.8428554362743843e-01  1.8322966533422186e-01  4.8059683662978803e-02  5.2534187923284771e-02  5.1399521810499282e-02  5.0951902308821316e-02  5.3147401008414002e-02  5.3436553047920179e-02  5.7311519160188638e-02  5.8130316368311868e-02  3.8208826447916644e-01  2.2421593829286637e-01  2.1833981965810464e-01  9.9860734654215910e-01  3.4217874639696361e-01  3.3558095246719993e-01  1.9827048537189856e-01  1.1294034212079347e+00  5.6648717038089857e-01  5.7770249180775102e-01  8.7192839318661464e-01  5.3828041066777110e-01  5.4522859597485429e-01  5.0096492381096473e-02  5.0063909391562876e-02  4.7362741240806236e-02  4.3544799055735772e-02  4.3697485113151330e-02  2.0733248107757671e-01  1.0839316702993282e+00  1.5539257694643890e-01  1.8229817958699343e-01  9.7867649423454037e-02  9.9620743803934361e-02  5.7034771763869112e-02  6.6162110061975932e-01  4.7150582182239116e-02  4.6735821404714328e-02  1.4117228562608686e-01  1.4449005038714202e-01  1.0692615131200127e+00  9.9612782443042347e-01  4.4389917915923956e-02  4.4710946143420333e-02  6.5900944649225801e-01  1.0758674353460782e+00  1.1065920144096404e+00  9.2127326287409647e-02  9.1782178330742412e-02  4.2367323261852197e-01  4.3836763148297445e-02  1.1860068036458803e-01  7.3396447621732708e-01  7.4397215890860680e-01  5.6773165536996247e-02  1.2786906402775056e+00  4.6393758749688603e-02  4.6363410913918171e-02  2.0882093978937857e-01  2.0948432044271539e-01  9.1095688192349672e-02  9.2012078694334393e-02  1.0513011217229395e+00  2.2468562205924333e-01  2.2514070153794938e-01  8.0045046425546118e-01  4.6747938548454680e-02  4.6903817157006658e-02  4.8836155004596010e-02  4.9813745242730259e-02  4.5704878792287316e-02  4.5948770901656590e-02  7.8706972065825487e-01  8.6370329482788888e-01  1.8963910847701862e-01  1.9765193401004086e-01  4.9269513763521865e-02  1.0541466449150387e+00  7.9499826715725685e-01  8.7662896140394975e-01  2.1239641246886609e-01  7.7840820862192994e-01  7.8391391566038993e-01  1.2758988727992029e+00  2.8958241716847871e-01  2.6552122218297136e-01  5.0957306697618769e-02  5.1484945284508296e-02  5.3111882998750297e-02  -2.7037058978520517e-02  -2.7031581788657215e-02  -2.7153556368384013e-02  -2.7139760444569738e-02  -2.4447566911549239e-02  -2.4410824236061914e-02  -2.5002093108913343e-02  -2.5017080116689110e-02  -2.5164945799503347e-02  -2.5177931901516140e-02  -2.5566460918587365e-02  -2.5581591272329819e-02  -2.2489258823230222e-02  -2.2488138294116465e-02  -2.2262933591672893e-02  -2.2495201027216059e-02  -2.6487080363707335e-02  -2.6503521188142656e-02  -2.6274264671234504e-02  -2.6255612007793631e-02  -2.5472022448015410e-02  -2.5471373894086175e-02  -2.5450859706540947e-02  -2.5444704348131082e-02  -2.3314990861616976e-02  -2.3322803575547883e-02  -2.3056628545197012e-02  -2.3601540583339568e-02  -2.3049779023146390e-02  -2.3589742438806731e-02  -2.3753169502497683e-02  -2.3737760725540083e-02  -2.2194028614282435e-02  -1.9155124355402335e-02  -2.2181987615231873e-02  -1.9148776209015981e-02  -2.3851488855098035e-02  -2.3859349257780178e-02  -1.8583970738537042e-02  -1.8585674202665315e-02  -2.3579240369664214e-02  -2.3529021418402858e-02  -2.1596434131147348e-02  -2.1585625776871495e-02  -2.2692114548839536e-02  -2.2001779073974940e-02  -2.1985882822674094e-02  -2.2675974349250335e-02  -2.2693572784487529e-02  -2.1767404002106031e-02  -2.1766333776845219e-02  -2.1570564021544999e-02  -2.1582775795899574e-02  -2.2532902375602924e-02  -1.8300573727425311e-02  -1.9669290558625992e-02  -1.8084641313296373e-02  -1.8091539549972543e-02  -1.7795875705288306e-02  -1.7370992241893434e-02  -2.6662010062042441e-02  -2.6671184156726875e-02  -2.7208324023073556e-02  -2.7212353054324730e-02  -2.3219719740322508e-02  -2.2903196212503293e-02  -2.3270099238280665e-02  -2.2962171029128103e-02  -2.6861302012992562e-02  -2.6848512194843872e-02  -2.7499515940885802e-02  -2.7515010005653217e-02  -2.3750452211812278e-02  -2.3727931788469780e-02  -1.7715948390966418e-02  -1.7777769640873700e-02  -1.7179196968863501e-02  -1.7156951124488770e-02  -2.2835662024493931e-02  -2.2831506383485831e-02  -1.7335832413824446e-02  -1.7318715092630145e-02  -2.2576426644921620e-02  -2.2611321879013858e-02  -2.1242350842740572e-02  -2.3206592995757506e-02  -2.1216872639909151e-02  -2.3203015565750062e-02  -2.1588317145285422e-02  -2.1600583777140244e-02  -2.1242005220940666e-02  -2.1225079951180205e-02  -2.0165536662088909e-02  -2.0246347047289153e-02  -2.1274371291034554e-02  -2.1222317323293660e-02  -2.3311922133227525e-02  -2.3319204233105011e-02  -2.3654920451841529e-02  -2.3664021082182230e-02  -2.0535798636019686e-02  -2.0573853592394952e-02  -2.3739522138858958e-02  -2.3728129504209401e-02  -2.0265103258441233e-02  -2.0253143475227196e-02  -2.5709745707543540e-02  -2.5718631233894926e-02  -2.1438863152470219e-02  -2.1457992853739994e-02  -2.0681047256982509e-02  -2.0670577165082964e-02  -1.5478208062475889e-02  -1.5484810655252132e-02  -2.5989992159867244e-02  -2.6008095125803998e-02  -2.0374760042207264e-02  -2.0318068934529591e-02  -1.5841184870149579e-02  -1.5836378077227858e-02  -1.5262627768145506e-02  -1.5255636189782883e-02  -1.4423031876350989e-02  -2.4232907888301430e-02  -2.4224566869280428e-02  -2.3619502190407246e-02  -2.3630646114978605e-02  -2.3899473118167775e-02  -2.3945248698601897e-02  -2.3338213188790466e-02  -2.3337675357218587e-02  -2.6938865054941179e-02  -2.6947790195951470e-02  -2.7006302836917528e-02  -2.7012541081029989e-02  -2.0465441465801565e-02  -2.0412467682848753e-02  -2.3130269454177926e-02  -2.3207745303799855e-02  -2.0413222360084991e-02  -2.0369814313911012e-02  -1.5122949858804764e-02  -1.4884164626711365e-02  -1.4876993112107023e-02  -8.6937955424722102e-03  -8.6918811911885115e-03  -8.5880404606827124e-03  -8.5875615486427671e-03  -1.3960263267580071e-02  -1.3957717951685239e-02  -2.5180763146243321e-02  -2.5165962924748229e-02  -2.5445921192662702e-02  -2.5444984305148893e-02  -2.5060269619976702e-02  -2.5074667155477522e-02  -2.7729780528654258e-02  -2.7712993785760365e-02  -2.4796245032023170e-02  -2.4788311047283185e-02  -2.7740050788256299e-02  -2.7745770138918428e-02  -2.0028195069507086e-02  -2.0039729650420227e-02  -1.6992466154031254e-02  -1.6992487693474567e-02  -1.8961172371330333e-02  -1.9127402396650003e-02  -1.9246097773433637e-02  -2.2392084860766884e-02  -2.2125019351468631e-02  -1.4139404172252953e-02  -1.4132445914028322e-02  -2.5760329596095168e-02  -2.5763273041374921e-02  -2.4173263676566307e-02  -2.4155904365048400e-02  -2.4695303145030646e-02  -2.4703159907555620e-02  -2.3946400790885371e-02  -2.3946808500692703e-02  -1.8671848224023395e-02  -1.8787090654876364e-02  -2.2906683621279872e-02  -2.2911610828852250e-02  -2.3031677613642953e-02  -2.3181993857460170e-02  -1.6137034156018366e-02  -1.6090295040177623e-02  -1.6078943481802246e-02  -2.6034779647197036e-02  -2.6019543543662326e-02  -1.6882898577823397e-02  -1.6827214217517469e-02  -1.5313942013128794e-02  -1.5313416686301881e-02  -2.0616453215170943e-02  -2.5199720408690396e-02  -2.5208462001143395e-02  -1.5175208235557578e-02  -1.5182764220571429e-02  -1.8494269690431941e-02  -2.4070493578858588e-02  -1.8468922655602762e-02  -2.4070008865204648e-02  -1.4213408397797351e-02  -1.4203336946815699e-02  -2.2855044585612896e-02  -2.2867677203631167e-02  -2.3173749801910875e-02  -2.3192209278015560e-02  -2.0078778015943075e-02  -2.0118980706806955e-02  -2.5709243585494212e-02  -2.5722718074243773e-02  -1.7911339305757702e-02  -2.3769553372393743e-02  -1.7991379485971088e-02  -2.3797638815125782e-02  -2.2531267624119087e-02  -2.2535933163070686e-02  -1.5849329301720724e-02  -1.5875448957110298e-02  -1.6080978503494318e-02  -1.6074488166533476e-02  -1.3331181893984868e-02  -1.3332458491100287e-02  -2.3420397262844804e-02  -2.3407656761662229e-02  -2.3924910601543919e-02  -2.3899203596230340e-02  -2.3833151049693777e-02  -2.3844258707943537e-02  -1.5235275424476108e-02  -1.5224534500956498e-02  -2.4849532899032425e-02  -2.4864721427643625e-02  -2.6810589795765366e-02  -2.6814717742624686e-02  -2.5167938091065257e-02  -2.5174477403111316e-02  -1.9805772946059442e-02  -1.9843646091636476e-02  -2.6154865950743705e-02  -2.6172225891275248e-02  -2.7054732018323389e-02  -2.7037792358247510e-02  -1.9257261258485793e-02  -1.9366770691831344e-02  -1.9652616345164450e-02  -1.9587483242336563e-02  -2.2739590982281118e-02  -2.2756719628849984e-02  -1.2964946953983779e-02  -1.2967637884305229e-02  -1.9405673643746093e-02  -1.9278497976659405e-02  -2.5237758919741442e-02  -2.4790204398725292e-02  -2.5208023660376545e-02  -2.4762327636529344e-02  -2.6911985016735914e-02  -2.6906150350915502e-02  -2.7749670053654463e-02  -2.7751422129495888e-02  -1.8044333955637492e-02  -1.8246532579675692e-02  -2.1867417577771105e-02  -2.1875522931456712e-02  -2.6351333017526981e-02  -2.6357199947801651e-02  -2.7881788705935249e-02  -2.7866659695150450e-02  -2.4205823069389586e-02  -2.4191533126593751e-02  -2.3941033916106740e-02  -2.3986089802431110e-02  -2.0054782584404900e-02  -1.5504263068628220e-02  -1.5506967712491805e-02  -2.0902498634134799e-02  -1.5856817685415834e-02  -1.5957087970413432e-02  -1.5974514412822972e-02  -1.4908755721996951e-02  -1.2508387961742518e-02  -1.2508018885291473e-02  -1.9141870001262717e-02  -1.9006048793415942e-02  -1.2801921500258558e-02  -1.2799613224294059e-02  -1.4213857985727734e-02  -1.5803509162176110e-02  -1.5817417343045679e-02  -1.9167936939329638e-02  -1.9185440220979379e-02  -1.4119042759091274e-02  -1.4114437458160932e-02  -2.3253196566820736e-02  -2.3216891059537868e-02  -2.3807457322633774e-02  -2.3809323619997106e-02  -2.6967854013443086e-02  -2.6950833275125083e-02  -2.3406664993564138e-02  -2.3415108813101042e-02  -2.3104638480488854e-02  -2.6285926929165405e-02  -2.6297633495131697e-02  -2.4747891652072172e-02  -2.4751406238754128e-02  -2.2959686531524044e-02  -1.8507104269966615e-02  -1.8356423534930368e-02  -2.5767659395212861e-02  -2.5779670404888964e-02  -1.8820378044861939e-02  -1.9002863744770598e-02  -1.4406776534761141e-02  -1.4407353648324352e-02  -1.8729161872333734e-02  -1.8622807210273526e-02  -1.4410566313121287e-02  -1.4439949340777752e-02  -1.8069110490093344e-02  -1.8561075237822498e-02  -2.3102913992730005e-02  -1.3986971843899671e-02  -2.2024994136247374e-02  -2.2038973689385264e-02  -2.1036880370184582e-02  -2.1030928254112197e-02  -2.2240033854171178e-02  -2.2244137579945308e-02  -2.2043623553027962e-02  -2.3605325992366488e-02  -2.2038511052439078e-02  -2.3580358388726456e-02  -2.6651085426554373e-02  -2.6666242831350079e-02  -2.5090385014756501e-02  -2.5078957569508242e-02  -2.3928846356530444e-02  -2.3935320421090197e-02  -2.2416389187914647e-02  -2.2388230077767066e-02  -2.5407520421221089e-02  -2.5434108959098166e-02  -2.6182838952751170e-02  -2.6178892778938177e-02  -2.3762288965755191e-02  -2.3773910779491200e-02  -2.0249426106555724e-02  -2.0236068547684737e-02  -2.1364737965789932e-02  -2.1355074492440434e-02  -2.1601083277832764e-02  -2.1590401102969673e-02  -2.5039004009280615e-02  -2.5045178156459475e-02  -1.8783207174730237e-02  -1.8735929696253293e-02  -1.8553243779078164e-02  -1.8366823739280093e-02  -2.4244798164165787e-02  -2.4280881594871514e-02  -2.3336721779885633e-02  -2.3346621827541356e-02  -1.3667093388472966e-02  -1.3671955328293109e-02  -2.1426629244284744e-02  -2.1455810925732906e-02  -2.1713075503235237e-02  -2.1623996906860135e-02  -2.3345710651246902e-02  -2.3364361224325069e-02  -1.8890028405497070e-02  -1.8988992746228509e-02  -2.0408897445111769e-02  -2.0389138027467547e-02  -2.4031584827057511e-02  -2.4017405051749360e-02  -2.4858619508878556e-02  -2.48424464