<?xml version="1.0"?>
<VTKFile type="UnstructuredGrid"  version="0.1"  >
<UnstructuredGrid>
<Piece  NumberOfPoints="1286" NumberOfCells="2474">
<Points>
<DataArray  type="Float64"  NumberOfComponents="3"  format="ascii">0 0 0  0 1 0  1 1 0  1 0 0  1.1 -0.1 0  -0.1 -0.1 0  1.1 1.1 0  -0.1 1.1 0  0.2521938324719677 0.499726543803422 0  0.4995441878312019 0.4999481386048852 0  0 0.9499999999997918 0  0 0.8999999999995836 0  0 0.8499999999996529 0  0 0.7999999999999998 0  0 0.7500000000003466 0  0 0.7000000000006934 0  0 0.6500000000010401 0  0 0.6000000000013869 0  0 0.5500000000017335 0  0 0.5000000000020587 0  0 0.4500000000018723 0  0 0.4000000000016644 0  0 0.3500000000014564 0  0 0.3000000000012483 0  0 0.2500000000010403 0  0 0.2000000000008322 0  0 0.1500000000006241 0  0 0.100000000000416 0  0 0.05000000000020799 0  0.04999999999989965 0 0  0.09999999999981467 0 0  0.1499999999997036 0 0  0.1999999999995579 0 0  0.2499999999994121 0 0  0.2999999999992664 0 0  0.3499999999991206 0 0  0.3999999999989749 0 0  0.4499999999988292 0 0  0.4999999999986943 0 0  0.5499999999988151 0 0  0.5999999999989468 0 0  0.6499999999990784 0 0  0.69999999999921 0 0  0.7499999999993417 0 0  0.7999999999994734 0 0  0.8499999999996051 0 0  0.8999999999997368 0 0  0.9499999999998684 0 0  1 0.04999999999989965 0  1 0.09999999999981467 0  1 0.1499999999997036 0  1 0.1999999999995579 0  1 0.2499999999994121 0  1 0.2999999999992664 0  1 0.3499999999991206 0  1 0.3999999999989749 0  1 0.4499999999988292 0  1 0.4999999999986943 0  1 0.5499999999988151 0  1 0.5999999999989468 0  1 0.6499999999990784 0  1 0.69999999999921 0  1 0.7499999999993417 0  1 0.7999999999994734 0  1 0.8499999999996051 0  1 0.8999999999997368 0  1 0.9499999999998684 0  0.9499999999997918 1 0  0.8999999999995836 1 0  0.8499999999996529 1 0  0.7999999999999998 1 0  0.7500000000003466 1 0  0.7000000000006934 1 0  0.6500000000010401 1 0  0.6000000000013869 1 0  0.5500000000017335 1 0  0.5000000000020587 1 0  0.4500000000018723 1 0  0.4000000000016644 1 0  0.3500000000014564 1 0  0.3000000000012483 1 0  0.2500000000010403 1 0  0.2000000000008322 1 0  0.1500000000006241 1 0  0.100000000000416 1 0  0.05000000000020799 1 0  -0.1 1.05000000000004 0  -0.1 1.000000000000079 0  -0.1 0.9500000000001624 0  -0.1 0.9000000000003032 0  -0.1 0.850000000000444 0  -0.1 0.8000000000005848 0  -0.1 0.7500000000007256 0  -0.1 0.7000000000008665 0  -0.1 0.6500000000010508 0  -0.1 0.6000000000012352 0  -0.1 0.5500000000014196 0  -0.1 0.500000000001539 0  -0.1 0.4500000000014195 0  -0.1 0.4000000000013 0  -0.1 0.3500000000011588 0  -0.1 0.3000000000010178 0  -0.1 0.2500000000008986 0  -0.1 0.2000000000007579 0  -0.1 0.1500000000006174 0  -0.1 0.1000000000005272 0  -0.1 0.05000000000040083 0  -0.1 2.671196597248127e-13 0  -0.1 -0.0499999999998666 0  -0.0500000000000906 -0.1 0  -1.730560139634463e-13 -0.1 0  0.04999999999975802 -0.1 0  0.09999999999961506 -0.1 0  0.1499999999994613 -0.1 0  0.199999999999302 -0.1 0  0.2499999999991446 -0.1 0  0.2999999999990088 -0.1 0  0.3499999999988296 -0.1 0  0.3999999999986936 -0.1 0  0.4499999999985143 -0.1 0  0.4999999999984002 -0.1 0  0.5499999999985247 -0.1 0  0.5999999999986493 -0.1 0  0.6499999999987955 -0.1 0  0.6999999999989417 -0.1 0  0.7499999999990659 -0.1 0  0.7999999999992116 -0.1 0  0.8499999999993573 -0.1 0  0.8999999999994526 -0.1 0  0.949999999999584 -0.1 0  0.9999999999997226 -0.1 0  1.049999999999861 -0.1 0  1.1 -0.0500000000000906 0  1.1 -1.730560139634463e-13 0  1.1 0.04999999999975802 0  1.1 0.09999999999961506 0  1.1 0.1499999999994613 0  1.1 0.199999999999302 0  1.1 0.2499999999991446 0  1.1 0.2999999999990088 0  1.1 0.3499999999988296 0  1.1 0.3999999999986936 0  1.1 0.4499999999985143 0  1.1 0.4999999999984002 0  1.1 0.5499999999985247 0  1.1 0.5999999999986493 0  1.1 0.6499999999987955 0  1.1 0.6999999999989417 0  1.1 0.7499999999990659 0  1.1 0.7999999999992116 0  1.1 0.8499999999993573 0  1.1 0.8999999999994526 0  1.1 0.949999999999584 0  1.1 0.9999999999997226 0  1.1 1.049999999999861 0  1.05000000000004 1.1 0  1.000000000000079 1.1 0  0.9500000000001624 1.1 0  0.9000000000003032 1.1 0  0.850000000000444 1.1 0  0.8000000000005848 1.1 0  0.7500000000007256 1.1 0  0.7000000000008665 1.1 0  0.6500000000010508 1.1 0  0.6000000000012352 1.1 0  0.5500000000014196 1.1 0  0.500000000001539 1.1 0  0.4500000000014195 1.1 0  0.4000000000013 1.1 0  0.3500000000011588 1.1 0  0.3000000000010178 1.1 0  0.2500000000008986 1.1 0  0.2000000000007579 1.1 0  0.1500000000006174 1.1 0  0.1000000000005272 1.1 0  0.05000000000040083 1.1 0  2.671196597248127e-13 1.1 0  -0.0499999999998666 1.1 0  0.2538430915974591 0.4695288170307642 0  0.2589962777875455 0.4407692042413986 0  0.266934809346942 0.413555991946789 0  0.2779347433555539 0.3875517896893043 0  0.2915594856165348 0.363540926288944 0  0.3073526584580856 0.3415119445214279 0  0.325561396114453 0.3208990756797513 0  0.346605216675803 0.3022313347302731 0  0.3692898572757154 0.2868020415395487 0  0.3934076683473 0.274241003130844 0  0.419308943935759 0.2645391883648993 0  0.4470254550560587 0.2576909539294698 0  0.4765589892092711 0.2538146935916353 0  0.5074102100097941 0.2527385181366912 0  0.5378470774950872 0.255208112670579 0  0.566417795439569 0.2608281553252416 0  0.5931634426378477 0.2690788949271423 0  0.6183527652868356 0.2806123625056492 0  0.6418164201735719 0.2951154393315166 0  0.6636771092732793 0.3124374203097737 0  0.6830714092494555 0.3315162972969616 0  0.7007243367556202 0.3532259571947007 0  0.7155621052361645 0.3762777103724111 0  0.7278211076077181 0.4005212284279476 0  0.7377190090833402 0.4268887772177573 0  0.7444365881734039 0.4549901532153366 0  0.7482492051986311 0.4845865778072809 0  0.748080927169763 0.5153416170631497 0  0.7440168345284582 0.5449468053086637 0  0.7372680175938977 0.5729802329463121 0  0.727427273521087 0.5993976530011144 0  0.7152785514808454 0.6239673466436925 0  0.7006618565580469 0.6473103413335455 0  0.6832215803907509 0.6692009359487995 0  0.6638391878455696 0.6884380379296657 0  0.6421333208856823 0.7055655413671615 0  0.6186215078664929 0.7199201349502224 0  0.5933008871016974 0.7313584520863455 0  0.5664129401426032 0.739507409984265 0  0.5378291463457688 0.745055038194635 0  0.5073698204139646 0.7475280984240732 0  0.4766482886937889 0.7464275388924665 0  0.4473825482592373 0.7423741543161958 0  0.4196591991323437 0.7351438863460914 0  0.3938718992035581 0.7251999193318202 0  0.3699216388429137 0.7125780395184064 0  0.3473750049557342 0.6972006033742109 0  0.3261377959257466 0.6785383398921954 0  0.3077629108718501 0.65821380271942 0  0.2917216779579147 0.636403407941629 0  0.2779851331807375 0.6124021091200661 0  0.2668745223846858 0.5863288885888082 0  0.2588835642082315 0.5588981865212324 0  0.2537865287547257 0.5299815195678823 0  0.5013446649270235 0.6150363027229238 0  0.5070165152575125 0.3791420655684619 0  0.6293149337923167 0.4985550112072247 0  0.3648422827063736 0.499857193409092 0  0.4102353977052998 0.4225203446551917 0  0.4073552091721422 0.5773168792757224 0  0.578983802346975 0.4058144680763198 0  0.5785928220316141 0.5943244419096751 0  0.4380676843157238 0.6440507650463457 0  0.485958356497099 0.6823655771202282 0  0.5455811310743515 0.6806592082837862 0  0.4330430496404248 0.3520644804166012 0  0.4863343641934174 0.3160038338682637 0  0.5474896339332173 0.319146232818189 0  0.6506240365126005 0.5881422349056903 0  0.6511244988802919 0.4122267276822812 0  0.3456718198905906 0.5761740609388711 0  0.3448759896763685 0.4231102386817954 0  0.382335840657027 0.6391784740096637 0  0.3831842304492201 0.3598188100946675 0  0.5922204950392109 0.6516882572253936 0  0.5931646834748309 0.3478265375301339 0  0.6895064555748928 0.5000637469488776 0  0.6900922206461541 0.5550775371342945 0  0.6900854956527577 0.445727872958556 0  0.3068059745933382 0.4537602635002225 0  0.2975342135838378 0.5059423507722817 0  0.6357096197036177 0.3673342916078386 0  0.6363068459837009 0.6336965136033976 0  0.3046948931757275 0.5565120065145193 0  0.4250932460463994 0.5132797506996786 0  0.440911472593505 0.692891571921555 0  0.4410753064452858 0.3073180221248469 0  0.3464917884426986 0.3790570395301968 0  0.3464433985809178 0.6215012106823498 0  0.5631045530682574 0.5249505455988189 0  0.5211300739752116 0.4399690129061073 0  0.5200826021027984 0.2893644773645784 0  0.5195637672203033 0.7105214549531903 0  0.4692451080080113 0.5729223255266738 0  0.468038130171376 0.4451487269617238 0  0.3968963099933304 0.6704754999564929 0  0.3974863869689956 0.3298512708686653 0  0.603300871013324 0.457124134196749 0  0.6020756230370706 0.5414573387522224 0  0.5819030786426557 0.3149956951499394 0  0.5812311496510023 0.684939062320599 0  0.3956739290348321 0.5311331580006888 0  0.3901045220748078 0.4650615823892311 0  0.4475597872315754 0.4177386553733077 0  0.7096345826866354 0.5305775102344034 0  0.7108856114572198 0.4683017792571398 0  0.5433018878650069 0.6100493404286602 0  0.5447477691165334 0.3893987206656274 0  0.6930773104798988 0.5896894164905284 0  0.693232114071641 0.4103472003216589 0  0.4293367410621666 0.6091883287326315 0  0.3038075241580968 0.4173478829149757 0  0.4724451727188106 0.7195645059198604 0  0.4724419794623691 0.2805975000637899 0  0.4609267514147449 0.6678112149520512 0  0.4586101523927442 0.3324641194429084 0  0.6665383450710789 0.3753931139731485 0  0.666301101442709 0.6248801078965111 0  0.629246794236805 0.334417834479313 0  0.6294779379660236 0.6660232755975196 0  0.2831550144638336 0.4710139880286924 0  0.3080035810475148 0.5870647078938862 0  0.721785450371673 0.5000055462479617 0  0.516899918043117 0.5648204529167475 0  0.2840058174831573 0.5361406944304833 0  0.3194526032510905 0.3905188835636296 0  0.4623893318820645 0.6056326362084868 0  0.5673380176675908 0.2900290792322627 0  0.5662053297681795 0.7102005648810336 0  0.3541666620891735 0.5368875692980304 0  0.3235763310865232 0.5254668812644689 0  0.5614585716071591 0.3504
[...]
<PointData  Scalars="state"> 
<DataArray  type="Float64"  Name="state"  format="ascii">0.0000000000000000e+00  0.0000000000000000e+00  0.0000000000000000e+00  0.0000000000000000e+00  0.0000000000000000e+00  0.0000000000000000e+00  0.0000000000000000e+00  0.0000000000000000e+00  -1.0519642172331570e-02  1.3709979013154481e+00  0.0000000000000000e+00  0.0000000000000000e+00  0.0000000000000000e+00  0.0000000000000000e+00  0.0000000000000000e+00  0.0000000000000000e+00  0.0000000000000000e+00  0.0000000000000000e+00  0.0000000000000000e+00  0.0000000000000000e+00  0.0000000000000000e+00  0.0000000000000000e+00  0.0000000000000000e+00  0.0000000000000000e+00  0.0000000000000000e+00  0.0000000000000000e+00  0.0000000000000000e+00  0.0000000000000000e+00  0.0000000000000000e+00  0.0000000000000000e+00  0.0000000000000000e+00  0.0000000000000000e+00  0.0000000000000000e+00  0.0000000000000000e+00  0.0000000000000000e+00  0.0000000000000000e+00  0.0000000000000000e+00  0.0000000000000000e+00  0.0000000000000000e+00  0.0000000000000000e+00  0.0000000000000000e+00  0.0000000000000000e+00  0.0000000000000000e+00  0.0000000000000000e+00  0.0000000000000000e+00  0.0000000000000000e+00  0.0000000000000000e+00  0.0000000000000000e+00  0.0000000000000000e+00  0.0000000000000000e+00  0.0000000000000000e+00  0.0000000000000000e+00  0.0000000000000000e+00  0.0000000000000000e+00  0.0000000000000000e+00  0.0000000000000000e+00  0.0000000000000000e+00  0.0000000000000000e+00  0.0000000000000000e+00  0.0000000000000000e+00  0.0000000000000000e+00  0.0000000000000000e+00  0.0000000000000000e+00  0.0000000000000000e+00  0.0000000000000000e+00  0.0000000000000000e+00  0.0000000000000000e+00  0.0000000000000000e+00  0.0000000000000000e+00  0.0000000000000000e+00  0.0000000000000000e+00  0.0000000000000000e+00  0.0000000000000000e+00  0.0000000000000000e+00  0.0000000000000000e+00  0.0000000000000000e+00  0.0000000000000000e+00  0.0000000000000000e+00  0.0000000000000000e+00  0.0000000000000000e+00  0.0000000000000000e+00  0.0000000000000000e+00  0.0000000000000000e+00  0.0000000000000000e+00  0.0000000000000000e+00  0.0000000000000000e+00  0.0000000000000000e+00  0.0000000000000000e+00  0.0000000000000000e+00  0.0000000000000000e+00  0.0000000000000000e+00  0.0000000000000000e+00  0.0000000000000000e+00  0.0000000000000000e+00  0.0000000000000000e+00  0.0000000000000000e+00  0.0000000000000000e+00  0.0000000000000000e+00  0.0000000000000000e+00  0.0000000000000000e+00  0.0000000000000000e+00  0.0000000000000000e+00  0.0000000000000000e+00  0.0000000000000000e+00  0.0000000000000000e+00  0.0000000000000000e+00  0.0000000000000000e+00  0.0000000000000000e+00  0.0000000000000000e+00  0.0000000000000000e+00  0.0000000000000000e+00  0.0000000000000000e+00  0.0000000000000000e+00  0.0000000000000000e+00  0.0000000000000000e+00  0.0000000000000000e+00  0.0000000000000000e+00  0.0000000000000000e+00  0.0000000000000000e+00  0.0000000000000000e+00  0.0000000000000000e+00  0.0000000000000000e+00  0.0000000000000000e+00  0.0000000000000000e+00  0.0000000000000000e+00  0.0000000000000000e+00  0.0000000000000000e+00  0.0000000000000000e+00  0.0000000000000000e+00  0.0000000000000000e+00  0.0000000000000000e+00  0.0000000000000000e+00  0.0000000000000000e+00  0.0000000000000000e+00  0.0000000000000000e+00  0.0000000000000000e+00  0.0000000000000000e+00  0.0000000000000000e+00  0.0000000000000000e+00  0.0000000000000000e+00  0.0000000000000000e+00  0.0000000000000000e+00  0.0000000000000000e+00  0.0000000000000000e+00  0.0000000000000000e+00  0.0000000000000000e+00  0.0000000000000000e+00  0.0000000000000000e+00  0.0000000000000000e+00  0.0000000000000000e+00  0.0000000000000000e+00  0.0000000000000000e+00  0.0000000000000000e+00  0.0000000000000000e+00  0.0000000000000000e+00  0.0000000000000000e+00  0.0000000000000000e+00  0.0000000000000000e+00  0.0000000000000000e+00  0.0000000000000000e+00  0.0000000000000000e+00  0.0000000000000000e+00  0.0000000000000000e+00  0.0000000000000000e+00  0.0000000000000000e+00  0.0000000000000000e+00  0.0000000000000000e+00  0.0000000000000000e+00  0.0000000000000000e+00  0.0000000000000000e+00  0.0000000000000000e+00  0.0000000000000000e+00  0.0000000000000000e+00  0.0000000000000000e+00  0.0000000000000000e+00  0.0000000000000000e+00  0.0000000000000000e+00  0.0000000000000000e+00  -8.3930028644977721e-03  -9.1322680550079069e-03  -5.4934893756911881e-03  -5.8857373657202530e-03  -6.2832232879084099e-03  -8.1999065659545400e-03  -1.4493768088990489e-03  -5.5107196147766080e-03  -9.1419290779332051e-03  -8.7951081037498467e-03  -9.0477371104800575e-03  -8.0201790627930647e-03  -9.4651937459740917e-03  -8.7368222123537179e-03  -8.9709476921988329e-03  -9.1160067431939294e-03  -6.8242787059158748e-03  -8.2301966296825183e-03  -3.8252421041299091e-03  -6.3535439050499548e-03  -7.6811059203573317e-03  -3.1071156509361176e-03  -7.7250875884567159e-03  -8.5376844105965518e-03  -7.7057987910968042e-03  -9.9192975065095779e-03  -8.0761234262161207e-03  -7.9670546889921198e-03  -9.7972339869810219e-03  -7.4939535357451880e-03  -8.3640184131146388e-03  -7.5752192607539620e-03  -3.1988653671453935e-03  -7.9335336267605111e-03  -6.7253803994659226e-03  -3.9921168406275289e-03  -8.3635808614407631e-03  -6.8673552311175985e-03  -9.1312556493148150e-03  -8.9908338631109162e-03  -8.8842468170877310e-03  -9.6040227708656754e-03  -8.0932787495474213e-03  -8.9131873409959341e-03  -8.6964302027730395e-03  -9.1456934980570209e-03  -5.4776447493783470e-03  -1.6470646924179016e-03  -8.4134016333218802e-03  -6.8303237553996848e-03  -3.6574464966133797e-03  -8.4566963651743678e-03  -9.1090018166379398e-03  -8.0564833023459587e-03  9.2649467318351342e-01  8.8808028851516552e-01  8.5067336633208268e-01  8.1775443079639476e-01  9.0971382749133400e-01  8.9348075720622411e-01  8.6960121046642336e-01  8.7043892328326899e-01  5.3290957848836595e-01  1.8636300590327351e-01  1.5166526294181884e-01  4.5727011142428975e-01  1.7003035196212474e-01  1.4550207943853791e-01  2.4131917370249842e-01  2.3700047058793064e-01  2.7410428814914251e-01  2.6358369742419685e-01  1.7936322518117898e-01  1.8017080921275355e-01  2.1612538788603294e-01  2.0429919121264320e-01  1.3992902332590698e-01  1.0937167260874356e-01  1.0985366567176648e-01  1.0915181558435007e-01  8.4895188892965753e-02  1.2365085324576403e-01  1.1859324897265780e-01  8.7973795946011304e-02  1.1669191278386331e+00  9.2708026646930411e-02  9.2496590457879488e-02  1.1553063289276477e-01  1.1155465344164438e-01  1.2200484165311858e+00  1.2333358151487788e+00  6.5210842365783298e-02  6.6544233045215964e-02  1.1480522536648456e+00  1.2320437531910078e+00  8.4249273174926670e-02  9.3709856429435592e-02  9.2968758510071170e-01  9.4038325642504228e-01  8.0435727255911041e-02  8.2245603447360122e-02  9.4826318313916447e-01  9.0613612486324968e-01  1.0216868864000570e+00  6.8508397158109607e-02  6.4205751714946843e-02  9.1178305212764077e-01  9.0791020420450075e-01  6.6129004522237952e-02  6.5924095279082079e-02  8.4894340688899417e-01  6.5262574589137409e-02  5.8427939085392455e-02  5.8505850033387437e-02  2.8167630232833940e-01  2.9478889188986429e-01  7.7353185131259827e-02  7.7950455448889552e-02  7.6476697780133135e-02  7.5589081525360813e-02  6.2118918303437028e-02  6.5153266475043395e-02  5.5599132338072746e-02  1.2202104274953238e+00  5.6437952814191263e-02  6.4122380417310276e-02  9.3523718170243264e-01  5.8365549697321564e-02  5.9157462376545282e-02  6.5495188727887488e-01  2.1680253649728337e-01  4.3849138140942606e-01  4.5199997548950416e-01  6.2822560084238266e-01  6.4686819041616350e-01  6.0891533039404755e-01  6.2894201005069306e-01  6.2715209208220324e-01  6.4983394542497808e-01  6.4196670771077335e-01  7.2174304278946189e-01  4.4474452354774657e-01  6.8404291643198001e-02  6.1304546116557279e-02  6.1924260659981613e-02  6.9365790755158196e-01  5.3927881753161433e-01  6.1508744932366508e-02  6.2250082865403830e-02  1.2043330112915460e+00  5.6820098816950848e-01  5.5314028907228674e-01  8.2111843117260119e-01  5.6317051930526559e-02  5.5807468077878203e-02  2.9251831465005057e-01  6.7239828305622126e-02  6.3415937787810059e-02  5.4191726047199719e-02  5.3505359649028743e-02  3.8354608426519682e-01  1.8412431135908028e-01  1.8303236872947609e-01  4.7969795232874188e-02  5.2542681069689345e-02  5.1285727958158653e-02  5.0846354275448494e-02  5.3140061132535540e-02  5.3424661895094677e-02  5.7216287528414261e-02  5.8048713833904350e-02  3.8136882844323833e-01  2.2392493829796978e-01  2.1808509557861910e-01  9.9808961943685448e-01  3.4173506320587954e-01  3.3515402892742929e-01  1.9808788790636167e-01  1.1288796664377461e+00  5.6586861317239157e-01  5.7722373850550224e-01  8.7149427171594596e-01  5.3829338198424437e-01  5.4516759937030157e-01  5.0074614388101749e-02  5.0047846714653607e-02  4.7366207522470540e-02  4.3554715465659671e-02  4.3714081620544160e-02  2.0712109994162323e-01  1.0834528137005477e+00  1.5525364727757013e-01  1.8211863448104534e-01  9.7801865855766404e-02  9.9535638983469427e-02  5.6980714035877705e-02  6.6115138531545559e-01  4.7188001095304709e-02  4.6773314813339642e-02  1.4112624679470634e-01  1.4443613166738958e-01  1.0687161510335814e+00  9.9560538628785888e-01  4.4320072983372247e-02  4.4634017104764771e-02  6.5846631757200869e-01  1.0753067920959452e+00  1.1060700919366031e+00  9.1997298765124552e-02  9.1640681612191924e-02  4.2361187224740465e-01  4.3755669462787500e-02  1.1846834310887824e-01  7.3330138086863461e-01  7.4337482015130363e-01  5.6731290035258612e-02  1.2781919359177134e+00  4.6377325402284834e-02  4.6355175292373992e-02  2.0850249790171166e-01  2.0916390856792252e-01  9.1032300541303832e-02  9.1944127607611226e-02  1.0507616972729481e+00  2.2437865608718480e-01  2.2484789870681846e-01  8.0008556090642036e-01  4.6663363495970382e-02  4.6822205317227278e-02  4.8811123018800431e-02  4.9783318617133893e-02  4.5726456917146052e-02  4.5967373141754572e-02  7.8653917788110050e-01  8.6328924330846391e-01  1.8937493258078131e-01  1.9737431724523966e-01  4.9276112854806896e-02  1.0536539254945554e+00  7.9449451717275843e-01  8.7623051391351725e-01  2.1221151633932372e-01  7.7794642855469687e-01  7.8343096116675426e-01  1.2754047423642563e+00  2.8915059279133515e-01  2.6520223751221550e-01  5.0876345846929523e-02  5.1414361506875852e-02  5.3092390853025029e-02  -2.7045327186589481e-02  -2.7039493136259765e-02  -2.7161697457743401e-02  -2.7148394718049761e-02  -2.4457787182445945e-02  -2.4420638554558251e-02  -2.5012104799666830e-02  -2.5027458687843906e-02  -2.5175263595830805e-02  -2.5187977808286799e-02  -2.5577236722491403e-02  -2.5591865202758531e-02  -2.2499263470623913e-02  -2.2498728335754201e-02  -2.2272945337179974e-02  -2.2505667654381157e-02  -2.6499808167320674e-02  -2.6515282624212624e-02  -2.6285859843719662e-02  -2.6267984895345389e-02  -2.5483807241089382e-02  -2.5482829204050646e-02  -2.5463062460599747e-02  -2.5456574095838284e-02  -2.3328561525794426e-02  -2.3336812153059956e-02  -2.3070666528305483e-02  -2.3613160073596304e-02  -2.3064379271514761e-02  -2.3601625748340970e-02  -2.3764939640415494e-02  -2.3749992209057016e-02  -2.2199948372567734e-02  -1.9158642888823720e-02  -2.2188181174821912e-02  -1.9152524129282606e-02  -2.3864213232436590e-02  -2.3871258653711099e-02  -1.8587200876640963e-02  -1.8589042486308504e-02  -2.3591020193108148e-02  -2.3541272048032361e-02  -2.1602105687061359e-02  -2.1591627434579312e-02  -2.2707315681122248e-02  -2.2007925812721246e-02  -2.1991882427863846e-02  -2.2691775484324279e-02  -2.2708292769263925e-02  -2.1773371280702919e-02  -2.1772737976701970e-02  -2.1579397911511089e-02  -2.1591977064937550e-02  -2.2547936976415200e-02  -1.8307990547951632e-02  -1.9676853616716561e-02  -1.8091750359305610e-02  -1.8098363004439011e-02  -1.7802850999663531e-02  -1.7377955430678844e-02  -2.6671788979208709e-02  -2.6680400829790951e-02  -2.7218101725704932e-02  -2.7221718858848786e-02  -2.3232743404981673e-02  -2.2919707161729887e-02  -2.3282046547850242e-02  -2.2977051284182020e-02  -2.6870795132845567e-02  -2.6857645656406439e-02  -2.7509722528651720e-02  -2.7524737100876939e-02  -2.3764422312633992e-02  -2.3742619024816801e-02  -1.7722088755975723e-02  -1.7783603404716641e-02  -1.7185233388105157e-02  -1.7162657915483753e-02  -2.2846305560210424e-02  -2.2842449864216578e-02  -1.7341897240892461e-02  -1.7324607869045449e-02  -2.2588237448390652e-02  -2.2622399772118339e-02  -2.1257610480386518e-02  -2.3219873556491084e-02  -2.1232811536390398e-02  -2.3216550474317917e-02  -2.1595790769714306e-02  -2.1607767478807115e-02  -2.1255973384040082e-02  -2.1239193419723235e-02  -2.0180717017648009e-02  -2.0259383780056976e-02  -2.1288062394319556e-02  -2.1235340116871292e-02  -2.3317839433198061e-02  -2.3324730433193112e-02  -2.3660573447973593e-02  -2.3669881931195513e-02  -2.0553666574413702e-02  -2.0590699168797792e-02  -2.3750064057943759e-02  -2.3739303176916939e-02  -2.0279653396929852e-02  -2.0267445699240667e-02  -2.5721031500352532e-02  -2.5729359830164170e-02  -2.1453963765763237e-02  -2.1471889798121677e-02  -2.0699198900657596e-02  -2.0689691556220344e-02  -1.5481332627869280e-02  -1.5487751222375726e-02  -2.6001647847235416e-02  -2.6019168851609271e-02  -2.0388561814225849e-02  -2.0332766583674687e-02  -1.5847512081121205e-02  -1.5842421678854038e-02  -1.5265741742529296e-02  -1.5258894978966877e-02  -1.4428565330734805e-02  -2.4244529198349424e-02  -2.4235840935213325e-02  -2.3625500017594270e-02  -2.3636287061986866e-02  -2.3910710876731828e-02  -2.3956390148773373e-02  -2.3343851776238520e-02  -2.3343056108963263e-02  -2.6951433029995413e-02  -2.6959594525359797e-02  -2.7018763305306663e-02  -2.7024581511854991e-02  -2.0477036125756930e-02  -2.0425455119966913e-02  -2.3141117141345438e-02  -2.3218782938048504e-02  -2.0422761256153422e-02  -2.0379448424600561e-02  -1.5128885718965198e-02  -1.4887133016002823e-02  -1.4879894574564113e-02  -8.6949447926582754e-03  -8.6931083850057128e-03  -8.5891499388132553e-03  -8.5887156635571244e-03  -1.3962767769881170e-02  -1.3960435221486503e-02  -2.5190993882857303e-02  -2.5176401863124392e-02  -2.5456915047248826e-02  -2.5455494157710520e-02  -2.5068964151606886e-02  -2.5082981092793163e-02  -2.7739799115880384e-02  -2.7723564623030224e-02  -2.4804180892665225e-02  -2.4796590328295832e-02  -2.7749955378260027e-02  -2.7756116740994506e-02  -2.0037387937201862e-02  -2.0048283068903234e-02  -1.6999425807021067e-02  -1.6999133287050969e-02  -1.8980443899746565e-02  -1.9143539753992769e-02  -1.9266557773098131e-02  -2.2402113255901707e-02  -2.2134771467812456e-02  -1.4143035028183910e-02  -1.4136221852675020e-02  -2.5767933804284004e-02  -2.5770521594243857e-02  -2.4181462367219315e-02  -2.4163854995453878e-02  -2.4706768878652301e-02  -2.4714433167893624e-02  -2.3954292441041448e-02  -2.3955128655544968e-02  -1.8682712270892014e-02  -1.8797350183976318e-02  -2.2917270484789903e-02  -2.2922791492945981e-02  -2.3046281270382968e-02  -2.3196062388699128e-02  -1.6143553092353487e-02  -1.6094648265871581e-02  -1.6083184097794304e-02  -2.6042532335247691e-02  -2.6027694948632021e-02  -1.6886795652280913e-02  -1.6831283599624030e-02  -1.5317334235234716e-02  -1.5316574368861751e-02  -2.0634793078074240e-02  -2.5207290514077975e-02  -2.5215545664737011e-02  -1.5178379775314711e-02  -1.5186014984644768e-02  -1.8516242804936526e-02  -2.4084376628731415e-02  -1.8491931594115680e-02  -2.4083615024801101e-02  -1.4218387483172088e-02  -1.4208129999675372e-02  -2.2870633455935499e-02  -2.2882387722193920e-02  -2.3188505314766576e-02  -2.3205926897599934e-02  -2.0100226156289473e-02  -2.0138664412415800e-02  -2.5716692752654535e-02  -2.5730433081969255e-02  -1.7935765516201459e-02  -2.3784149096986219e-02  -1.8013448109145718e-02  -2.3811326059135617e-02  -2.2539888854984116e-02  -2.2544314787009717e-02  -1.5853664159657492e-02  -1.5880122668132147e-02  -1.6085795067472597e-02  -1.6079515619241303e-02  -1.3333390390880743e-02  -1.3334545428112667e-02  -2.3432803131297100e-02  -2.3420925630724870e-02  -2.3935746257714614e-02  -2.3910534941142047e-02  -2.3842906054483613e-02  -2.3853546903618624e-02  -1.5239298439546897e-02  -1.5228330342077011e-02  -2.4861188956357038e-02  -2.4875785877560827e-02  -2.6821786906649034e-02  -2.6825527521094631e-02  -2.5178793545321668e-02  -2.5185688280298390e-02  -1.9814340371954366e-02  -1.9852733782942018e-02  -2.6168124249331234e-02  -2.6184523783039773e-02  -2.7065721307850926e-02  -2.7049368463284242e-02  -1.9274948004194176e-02  -1.9382428523068256e-02  -1.9654711737980807e-02  -1.9591836095716270e-02  -2.2748160237189251e-02  -2.2765578772981444e-02  -1.2966807735787471e-02  -1.2969414742735257e-02  -1.9408968493468088e-02  -1.9282680432448174e-02  -2.5249490692000706e-02  -2.4802558978521655e-02  -2.5220482763294996e-02  -2.4775515853496983e-02  -2.6923316009796156e-02  -2.6916982736843828e-02  -2.7758951712354069e-02  -2.7761155947179702e-02  -1.8056482878974309e-02  -1.8255728529440511e-02  -2.1876037958946954e-02  -2.1884318086001039e-02  -2.6364067321482880e-02  -2.6369428402480001e-02  -2.7891327134130721e-02  -2.7876711475196009e-02  -2.4217596609023999e-02  -2.4203454035609490e-02  -2.3955709865146800e-02  -2.3999439883926162e-02  -2.0063290379549559e-02  -1.5509260370921424e-02  -1.5511698126702306e-02  -2.0911512685387747e-02  -1.5861543798630279e-02  -1.5961955234343371e-02  -1.5979656582017100e-02  -1.4913194053031995e-02  -1.2510009367690773e-02  -1.2509591012546168e-02  -1.9158876381535114e-02  -1.9020620261015544e-02  -1.2803546189939103e-02  -1.2801352225289216e-02  -1.4218662764837867e-02  -1.5806536248539945e-02  -1.5820312487249105e-02  -1.9188491987235757e-02  -1.9206099301924132e-02  -1.4121669500541355e-02  -1.4117185227698286e-02  -2.3264476311255999e-02  -2.3228982908021729e-02  -2.3819900523278380e-02  -2.3821497899839381e-02  -2.6978810736950642e-02  -2.6962362372307893e-02  -2.3418541618480920e-02  -2.3426422757528265e-02  -2.3118379714692730e-02  -2.6296584950173726e-02  -2.6308719018439064e-02  -2.4759202103824852e-02  -2.4762686931476156e-02  -2.2973402818495012e-02  -1.8508187093310025e-02  -1.8361106687996884e-02  -2.5777956110677246e-02  -2.5789529581145297e-02  -1.8848073735834595e-02  -1.9025936068025537e-02  -1.4411383868786215e-02  -1.4411709620093088e-02  -1.8743993756874827e-02  -1.8639760986004349e-02  -1.4413992998095166e-02  -1.4443458851506667e-02  -1.8077677844960886e-02  -1.8566151183886031e-02  -2.3115573285164438e-02  -1.3991659767138884e-02  -2.2040926651799766e-02  -2.2054341386201447e-02  -2.1046245552107257e-02  -2.1039855875896227e-02  -2.2249859966608800e-02  -2.2253444670026008e-02  -2.2058643898045627e-02  -2.3618481311571241e-02  -2.2052822581859716e-02  -2.3593321596748169e-02  -2.6661358532757296e-02  -2.6676055014081830e-02  -2.5096808094038008e-02  -2.5085794818961504e-02  -2.3940602805339252e-02  -2.3947212637966748e-02  -2.2429386279523324e-02  -2.2402030708188036e-02  -2.5420252934579037e-02  -2.5445877240156040e-02  -2.6192344362615728e-02  -2.6188742635718649e-02  -2.3774087660136913e-02  -2.3785662197280594e-02  -2.0254313356979282e-02  -2.0240848728270318e-02  -2.1369484050086540e-02  -2.1360094188224876e-02  -2.1606107870701715e-02  -2.1595670290283614e-02  -2.5045279444892311e-02  -2.5051722709782832e-02  -1.8806499040754425e-02  -1.8760613348268684e-02  -1.8559729547670149e-02  -1.8375433105667045e-02  -2.4253485179792728e-02  -2.4289266827650195e-02  -2.3347336799896326e-02  -2.3357724738329817e-02  -1.3671425125926255e-02  -1.3676489517644708e-02  -2.1433355033912384e-02  -2.1462199558345003e-02  -2.1729201076711512e-02  -2.1640490144886108e-02  -2.3353952660663563e-02  -2.3372863215356074e-02  -1.8911162521650895e-02  -1.9008222900615438e-02  -2.0415602805504425e-02  -2.0395674481838006e-02  -2.4043319349525912e-02  -2.4029966835520923e-02  -2.4866456084958275e-02  -2.48500240