<?xml version="1.0"?>
<VTKFile type="UnstructuredGrid"  version="0.1"  >
<UnstructuredGrid>
<Piece  NumberOfPoints="1286" NumberOfCells="2474">
<Points>
<DataArray  type="Float64"  NumberOfComponents="3"  format="ascii">0 0 0  0 1 0  1 1 0  1 0 0  1.1 -0.1 0  -0.1 -0.1 0  1.1 1.1 0  -0.1 1.1 0  0.2522199504298077 0.4997101616534717 0  0.4995452883308761 0.4999483187748043 0  0 0.9499999999997918 0  0 0.8999999999995836 0  0 0.8499999999996529 0  0 0.7999999999999998 0  0 0.7500000000003466 0  0 0.7000000000006934 0  0 0.6500000000010401 0  0 0.6000000000013869 0  0 0.5500000000017335 0  0 0.5000000000020587 0  0 0.4500000000018723 0  0 0.4000000000016644 0  0 0.3500000000014564 0  0 0.3000000000012483 0  0 0.2500000000010403 0  0 0.2000000000008322 0  0 0.1500000000006241 0  0 0.100000000000416 0  0 0.05000000000020799 0  0.04999999999989965 0 0  0.09999999999981467 0 0  0.1499999999997036 0 0  0.1999999999995579 0 0  0.2499999999994121 0 0  0.2999999999992664 0 0  0.3499999999991206 0 0  0.3999999999989749 0 0  0.4499999999988292 0 0  0.4999999999986943 0 0  0.5499999999988151 0 0  0.5999999999989468 0 0  0.6499999999990784 0 0  0.69999999999921 0 0  0.7499999999993417 0 0  0.7999999999994734 0 0  0.8499999999996051 0 0  0.8999999999997368 0 0  0.9499999999998684 0 0  1 0.04999999999989965 0  1 0.09999999999981467 0  1 0.1499999999997036 0  1 0.1999999999995579 0  1 0.2499999999994121 0  1 0.2999999999992664 0  1 0.3499999999991206 0  1 0.3999999999989749 0  1 0.4499999999988292 0  1 0.4999999999986943 0  1 0.5499999999988151 0  1 0.5999999999989468 0  1 0.6499999999990784 0  1 0.69999999999921 0  1 0.7499999999993417 0  1 0.7999999999994734 0  1 0.8499999999996051 0  1 0.8999999999997368 0  1 0.9499999999998684 0  0.9499999999997918 1 0  0.8999999999995836 1 0  0.8499999999996529 1 0  0.7999999999999998 1 0  0.7500000000003466 1 0  0.7000000000006934 1 0  0.6500000000010401 1 0  0.6000000000013869 1 0  0.5500000000017335 1 0  0.5000000000020587 1 0  0.4500000000018723 1 0  0.4000000000016644 1 0  0.3500000000014564 1 0  0.3000000000012483 1 0  0.2500000000010403 1 0  0.2000000000008322 1 0  0.1500000000006241 1 0  0.100000000000416 1 0  0.05000000000020799 1 0  -0.1 1.05000000000004 0  -0.1 1.000000000000079 0  -0.1 0.9500000000001624 0  -0.1 0.9000000000003032 0  -0.1 0.850000000000444 0  -0.1 0.8000000000005848 0  -0.1 0.7500000000007256 0  -0.1 0.7000000000008665 0  -0.1 0.6500000000010508 0  -0.1 0.6000000000012352 0  -0.1 0.5500000000014196 0  -0.1 0.500000000001539 0  -0.1 0.4500000000014195 0  -0.1 0.4000000000013 0  -0.1 0.3500000000011588 0  -0.1 0.3000000000010178 0  -0.1 0.2500000000008986 0  -0.1 0.2000000000007579 0  -0.1 0.1500000000006174 0  -0.1 0.1000000000005272 0  -0.1 0.05000000000040083 0  -0.1 2.671196597248127e-13 0  -0.1 -0.0499999999998666 0  -0.0500000000000906 -0.1 0  -1.730560139634463e-13 -0.1 0  0.04999999999975802 -0.1 0  0.09999999999961506 -0.1 0  0.1499999999994613 -0.1 0  0.199999999999302 -0.1 0  0.2499999999991446 -0.1 0  0.2999999999990088 -0.1 0  0.3499999999988296 -0.1 0  0.3999999999986936 -0.1 0  0.4499999999985143 -0.1 0  0.4999999999984002 -0.1 0  0.5499999999985247 -0.1 0  0.5999999999986493 -0.1 0  0.6499999999987955 -0.1 0  0.6999999999989417 -0.1 0  0.7499999999990659 -0.1 0  0.7999999999992116 -0.1 0  0.8499999999993573 -0.1 0  0.8999999999994526 -0.1 0  0.949999999999584 -0.1 0  0.9999999999997226 -0.1 0  1.049999999999861 -0.1 0  1.1 -0.0500000000000906 0  1.1 -1.730560139634463e-13 0  1.1 0.04999999999975802 0  1.1 0.09999999999961506 0  1.1 0.1499999999994613 0  1.1 0.199999999999302 0  1.1 0.2499999999991446 0  1.1 0.2999999999990088 0  1.1 0.3499999999988296 0  1.1 0.3999999999986936 0  1.1 0.4499999999985143 0  1.1 0.4999999999984002 0  1.1 0.5499999999985247 0  1.1 0.5999999999986493 0  1.1 0.6499999999987955 0  1.1 0.6999999999989417 0  1.1 0.7499999999990659 0  1.1 0.7999999999992116 0  1.1 0.8499999999993573 0  1.1 0.8999999999994526 0  1.1 0.949999999999584 0  1.1 0.9999999999997226 0  1.1 1.049999999999861 0  1.05000000000004 1.1 0  1.000000000000079 1.1 0  0.9500000000001624 1.1 0  0.9000000000003032 1.1 0  0.850000000000444 1.1 0  0.8000000000005848 1.1 0  0.7500000000007256 1.1 0  0.7000000000008665 1.1 0  0.6500000000010508 1.1 0  0.6000000000012352 1.1 0  0.5500000000014196 1.1 0  0.500000000001539 1.1 0  0.4500000000014195 1.1 0  0.4000000000013 1.1 0  0.3500000000011588 1.1 0  0.3000000000010178 1.1 0  0.2500000000008986 1.1 0  0.2000000000007579 1.1 0  0.1500000000006174 1.1 0  0.1000000000005272 1.1 0  0.05000000000040083 1.1 0  2.671196597248127e-13 1.1 0  -0.0499999999998666 1.1 0  0.2538448822111385 0.4695207096337314 0  0.2589572915083055 0.440765928688026 0  0.2668812976410683 0.4135568593589337 0  0.2778892381541994 0.3875509863802148 0  0.2915281523534927 0.3635354842688658 0  0.3073373843133695 0.3414966135780539 0  0.3255706971934509 0.320884828078858 0  0.3466129404972294 0.3022064440100148 0  0.3692853773617549 0.2867485300063687 0  0.3933918518976099 0.2741821648094188 0  0.4192795240323027 0.2644958454189589 0  0.4469967963683709 0.257678317567301 0  0.4765411455498382 0.2538395674087798 0  0.5074102349607114 0.2527694171694246 0  0.5378697672588547 0.2552041206546705 0  0.5664414161431233 0.2607834181697321 0  0.5931756743430875 0.2690218358525092 0  0.6183549629166247 0.2805618633308288 0  0.6418094073775161 0.295087532856477 0  0.6636666264720478 0.3124255714489496 0  0.6830693573240565 0.3315179603810212 0  0.7007429737180548 0.3532284669371991 0  0.7156219085578414 0.3762749687225764 0  0.727891308784689 0.4005144659321307 0  0.7377685453930238 0.4268854425067815 0  0.7444530732223658 0.4549932027611795 0  0.7482272465836557 0.484590874134139 0  0.7480555371714736 0.515334475588179 0  0.7440240110958756 0.5449436974846433 0  0.7373078495849421 0.5729773234888497 0  0.7274887383973646 0.5993977955692403 0  0.7153297177143454 0.6239723640715027 0  0.7006754907641625 0.6473152284477556 0  0.6832188860862412 0.6692087383045093 0  0.6638309425163172 0.6884585456264347 0  0.6421273317226808 0.7055992925055969 0  0.6186216512288837 0.7199722560054803 0  0.5933055211570364 0.7314146444133762 0  0.566424225600454 0.7395488197947185 0  0.5378390243661195 0.7450550723278927 0  0.5073544992787152 0.7474951476256049 0  0.4766270377132059 0.7464027132071051 0  0.4473710391275521 0.7423902094807339 0  0.4196448563174749 0.7351907801648309 0  0.3938682116978993 0.7252603497031963 0  0.3699293796728309 0.7126320603093673 0  0.3473931634153668 0.6972237622243939 0  0.3261506167222236 0.6785482491596625 0  0.307747823642647 0.6582301344811841 0  0.2916933344166839 0.6364224253921509 0  0.2779454406013386 0.6124216952382866 0  0.2668296451370899 0.586339288144655 0  0.2588512500617724 0.5588931250076685 0  0.2537927897973698 0.5299664634471167 0  0.501343830746147 0.6150399882717502 0  0.5070160112717852 0.3791387315617561 0  0.629318812120836 0.4985550927155176 0  0.3648387825890842 0.4998562446942952 0  0.4102323952670902 0.4225172942155763 0  0.4073535088723015 0.5773205277476228 0  0.5789861931145193 0.4058115236055404 0  0.5785939396322166 0.594328391783976 0  0.4380667176189632 0.6440583395708604 0  0.4859542508133446 0.6823693674613694 0  0.5455805811967317 0.6806693759640204 0  0.433038781693616 0.3520567638663733 0  0.4863304255272021 0.3160005195353178 0  0.5474933456083994 0.3191352900782297 0  0.6506325459184767 0.5881450471837828 0  0.6511354382115525 0.4122250723887876 0  0.345664499074433 0.5761783459135682 0  0.3448665257091957 0.4231066704911461 0  0.3823355621705079 0.6391908380709124 0  0.3831798084957408 0.3598076214672715 0  0.5922206847741908 0.6517003807937126 0  0.5931673083873036 0.3478156870805171 0  0.6895108770253149 0.5000632754968762 0  0.6901065203444603 0.5550773048808756 0  0.6901030036948599 0.4457270631518442 0  0.3067920697229931 0.4537565364166943 0  0.2975314082811858 0.505936842315267 0  0.6357154906459626 0.3673283679019124 0  0.6363106845948938 0.6337054736860906 0  0.3046805028138028 0.5565131495481199 0  0.4250914334759347 0.5132802144903247 0  0.440906445747625 0.6929079519290086 0  0.4410643555653185 0.3073033954754818 0  0.3464817744042771 0.3790489942671872 0  0.3464366259563726 0.6215118179781196 0  0.5631065122059337 0.5249516087722658 0  0.5211308326040961 0.4399672577061305 0  0.5200861878427978 0.2893625909884029 0  0.5195608869102988 0.7105222599799582 0  0.4692444684640565 0.5729251351513512 0  0.4680371811016498 0.4451469137590496 0  0.3968970394404212 0.6704962709101644 0  0.3974807258551202 0.3298318151720269 0  0.6033046152305542 0.4571233927763492 0  0.6020786190016731 0.5414586629274731 0  0.5819077481046592 0.3149745180124838 0  0.5812318230015951 0.6849605535730077 0  0.3956713218949471 0.5311342148592108 0  0.3901011463980243 0.4650599173555511 0  0.447557860828985 0.4177357190876667 0  0.7096399653542276 0.5305758662480392 0  0.7108946990665579 0.468301957788166 0  0.5433017495710262 0.6100534961049121 0  0.5447487700537678 0.389395201925204 0  0.6931028257828584 0.5896910244770217 0  0.6932626160976957 0.4103450646468791 0  0.4293359726926895 0.609193671020354 0  0.303782544173143 0.4173446463723431 0  0.4724343799047381 0.7195632725786849 0  0.4724299785294329 0.280599605491947 0  0.460924011478307 0.6678184595774955 0  0.4586050226493932 0.3324573499081429 0  0.6665539798521616 0.3753902781809794 0  0.6663136031371504 0.624886313915768 0  0.6292481292455356 0.3344034624141121 0  0.6294778241553547 0.6660414595214604 0  0.2831484242509754 0.4710077229245503 0  0.307983666142752 0.587072337696133 0  0.7217820067284526 0.5000046586523199 0  0.5169002550493104 0.5648228548286989 0  0.2839973104812045 0.536135798581835 0  0.3194324373069042 0.3905132905787605 0  0.4623884418358534 0.6056365618852373 0  0.5673482361465078 0.2900021203065846 0  0.5662085601913207 0.710225881787644 0  0.3541622527672235 0.5368880814766355 0  0.3235705645198888 0.5254653000551087 0  0.56146031929115
[...]
<PointData  Scalars="state"> 
<DataArray  type="Float64"  Name="state"  format="ascii">0.0000000000000000e+00  0.0000000000000000e+00  0.0000000000000000e+00  0.0000000000000000e+00  0.0000000000000000e+00  0.0000000000000000e+00  0.0000000000000000e+00  0.0000000000000000e+00  -1.0492288191472840e-02  1.3712861435955062e+00  0.0000000000000000e+00  0.0000000000000000e+00  0.0000000000000000e+00  0.0000000000000000e+00  0.0000000000000000e+00  0.0000000000000000e+00  0.0000000000000000e+00  0.0000000000000000e+00  0.0000000000000000e+00  0.0000000000000000e+00  0.0000000000000000e+00  0.0000000000000000e+00  0.0000000000000000e+00  0.0000000000000000e+00  0.0000000000000000e+00  0.0000000000000000e+00  0.0000000000000000e+00  0.0000000000000000e+00  0.0000000000000000e+00  0.0000000000000000e+00  0.0000000000000000e+00  0.0000000000000000e+00  0.0000000000000000e+00  0.0000000000000000e+00  0.0000000000000000e+00  0.0000000000000000e+00  0.0000000000000000e+00  0.0000000000000000e+00  0.0000000000000000e+00  0.0000000000000000e+00  0.0000000000000000e+00  0.0000000000000000e+00  0.0000000000000000e+00  0.0000000000000000e+00  0.0000000000000000e+00  0.0000000000000000e+00  0.0000000000000000e+00  0.0000000000000000e+00  0.0000000000000000e+00  0.0000000000000000e+00  0.0000000000000000e+00  0.0000000000000000e+00  0.0000000000000000e+00  0.0000000000000000e+00  0.0000000000000000e+00  0.0000000000000000e+00  0.0000000000000000e+00  0.0000000000000000e+00  0.0000000000000000e+00  0.0000000000000000e+00  0.0000000000000000e+00  0.0000000000000000e+00  0.0000000000000000e+00  0.0000000000000000e+00  0.0000000000000000e+00  0.0000000000000000e+00  0.0000000000000000e+00  0.0000000000000000e+00  0.0000000000000000e+00  0.0000000000000000e+00  0.0000000000000000e+00  0.0000000000000000e+00  0.0000000000000000e+00  0.0000000000000000e+00  0.0000000000000000e+00  0.0000000000000000e+00  0.0000000000000000e+00  0.0000000000000000e+00  0.0000000000000000e+00  0.0000000000000000e+00  0.0000000000000000e+00  0.0000000000000000e+00  0.0000000000000000e+00  0.0000000000000000e+00  0.0000000000000000e+00  0.0000000000000000e+00  0.0000000000000000e+00  0.0000000000000000e+00  0.0000000000000000e+00  0.0000000000000000e+00  0.0000000000000000e+00  0.0000000000000000e+00  0.0000000000000000e+00  0.0000000000000000e+00  0.0000000000000000e+00  0.0000000000000000e+00  0.0000000000000000e+00  0.0000000000000000e+00  0.0000000000000000e+00  0.0000000000000000e+00  0.0000000000000000e+00  0.0000000000000000e+00  0.0000000000000000e+00  0.0000000000000000e+00  0.0000000000000000e+00  0.0000000000000000e+00  0.0000000000000000e+00  0.0000000000000000e+00  0.0000000000000000e+00  0.0000000000000000e+00  0.0000000000000000e+00  0.0000000000000000e+00  0.0000000000000000e+00  0.0000000000000000e+00  0.0000000000000000e+00  0.0000000000000000e+00  0.0000000000000000e+00  0.0000000000000000e+00  0.0000000000000000e+00  0.0000000000000000e+00  0.0000000000000000e+00  0.0000000000000000e+00  0.0000000000000000e+00  0.0000000000000000e+00  0.0000000000000000e+00  0.0000000000000000e+00  0.0000000000000000e+00  0.0000000000000000e+00  0.0000000000000000e+00  0.0000000000000000e+00  0.0000000000000000e+00  0.0000000000000000e+00  0.0000000000000000e+00  0.0000000000000000e+00  0.0000000000000000e+00  0.0000000000000000e+00  0.0000000000000000e+00  0.0000000000000000e+00  0.0000000000000000e+00  0.0000000000000000e+00  0.0000000000000000e+00  0.0000000000000000e+00  0.0000000000000000e+00  0.0000000000000000e+00  0.0000000000000000e+00  0.0000000000000000e+00  0.0000000000000000e+00  0.0000000000000000e+00  0.0000000000000000e+00  0.0000000000000000e+00  0.0000000000000000e+00  0.0000000000000000e+00  0.0000000000000000e+00  0.0000000000000000e+00  0.0000000000000000e+00  0.0000000000000000e+00  0.0000000000000000e+00  0.0000000000000000e+00  0.0000000000000000e+00  0.0000000000000000e+00  0.0000000000000000e+00  0.0000000000000000e+00  0.0000000000000000e+00  0.0000000000000000e+00  0.0000000000000000e+00  0.0000000000000000e+00  0.0000000000000000e+00  0.0000000000000000e+00  0.0000000000000000e+00  0.0000000000000000e+00  0.0000000000000000e+00  0.0000000000000000e+00  0.0000000000000000e+00  0.0000000000000000e+00  0.0000000000000000e+00  0.0000000000000000e+00  0.0000000000000000e+00  0.0000000000000000e+00  -8.3752296168998763e-03  -9.1301336837548968e-03  -5.4918168255944843e-03  -5.8796633151533923e-03  -6.2735411284891964e-03  -8.1873523460050945e-03  -1.4289043724301715e-03  -5.4967006440130878e-03  -9.1399616260414394e-03  -8.7969202107357498e-03  -9.0494011363394782e-03  -8.0103631389495528e-03  -9.4384200487387659e-03  -8.7056055028232673e-03  -8.9565182795107359e-03  -9.1178874372842399e-03  -6.8269774504658501e-03  -8.2288815323329351e-03  -3.8128422760690434e-03  -6.3334776510631076e-03  -7.6603254949897627e-03  -3.0896752487281913e-03  -7.7230399170405998e-03  -8.5467443397089470e-03  -7.7073886021631292e-03  -9.9077477561384797e-03  -8.0514920038519885e-03  -7.9418717340136863e-03  -9.7827464305393508e-03  -7.4915249220221837e-03  -8.3696659578466771e-03  -7.5725904688679502e-03  -3.1823968346940392e-03  -7.9158710022654254e-03  -6.7094382208773805e-03  -3.9811717532351040e-03  -8.3619031303105978e-03  -6.8698233699182988e-03  -9.1311881242854345e-03  -8.9748184995360053e-03  -8.8542283537017385e-03  -9.5791343872439795e-03  -8.0845391238912809e-03  -8.9164022608136332e-03  -8.7008302432769972e-03  -9.1422998249033067e-03  -5.4615629629837991e-03  -1.6261503623053841e-03  -8.4022000236884577e-03  -6.8242980046177926e-03  -3.6519976075356933e-03  -8.4563373026999809e-03  -9.1035520767933885e-03  -8.0353748733558022e-03  9.2676013398053336e-01  8.8833945873391928e-01  8.5083774364347442e-01  8.1789931599531196e-01  9.0994248367970232e-01  8.9369524488509011e-01  8.6981601126334385e-01  8.7063189972779020e-01  5.3337840695904315e-01  1.8645799456402948e-01  1.5171178767272417e-01  4.5775865284448564e-01  1.7013687100400088e-01  1.4554246939311202e-01  2.4156357436183190e-01  2.3726002301785071e-01  2.7441817575333377e-01  2.6388194491809897e-01  1.7951605496410622e-01  1.8033050826566704e-01  2.1631270231236180e-01  2.0446462583472030e-01  1.4002296749556559e-01  1.0939641332153713e-01  1.0987433135284592e-01  1.0919065267778862e-01  8.4971920784252683e-02  1.2377473359503084e-01  1.1871215727092684e-01  8.8007280372917607e-02  1.1671999657755747e+00  9.2717090268132685e-02  9.2515693949307767e-02  1.1561700127400196e-01  1.1163354843677280e-01  1.2203248375083200e+00  1.2336134249218167e+00  6.5262460400330943e-02  6.6596843748942286e-02  1.1483213774959815e+00  1.2323283711170754e+00  8.4261157962965447e-02  9.3721795355714649e-02  9.2989665562561730e-01  9.4060536947320761e-01  8.0415196741595654e-02  8.2228595876553623e-02  9.4850646588730292e-01  9.0636548706025566e-01  1.0219779650207166e+00  6.8553743304625769e-02  6.4244717070417665e-02  9.1196917210716699e-01  9.0808193869511478e-01  6.6108135671342744e-02  6.5896032386683775e-02  8.4911774251435446e-01  6.5246303682007359e-02  5.8469092897893357e-02  5.8555274752976449e-02  2.8182973254117177e-01  2.9497998731083258e-01  7.7383267437732023e-02  7.7979449637006343e-02  7.6520684937471800e-02  7.5624416911840783e-02  6.2148677641224087e-02  6.5137941605027616e-02  5.5653126127312665e-02  1.2204838879658690e+00  5.6469380773935339e-02  6.4125645625914426e-02  9.3542091671987859e-01  5.8355252930228127e-02  5.9152409158926375e-02  6.5532437316691194e-01  2.1690795437713803e-01  4.3895400483691854e-01  4.5245387059925440e-01  6.2862397309669016e-01  6.4686922055007168e-01  6.0893745879477779e-01  6.2926654212312172e-01  6.2746257303283270e-01  6.5028829289459245e-01  6.4239061940473374e-01  7.2216949975424127e-01  4.4483713957851012e-01  6.8402923490321968e-02  6.1296216859079142e-02  6.1915242748626372e-02  6.9415701684757680e-01  5.3944577284025497e-01  6.1554614758876337e-02  6.2296262552575851e-02  1.2046168529136294e+00  5.6852396369819191e-01  5.5340274122184285e-01  8.2130696593851138e-01  5.6312052075857010e-02  5.5796469455385196e-02  2.9262387856562455e-01  6.7288043384164262e-02  6.3457828588960333e-02  5.4195158898734622e-02  5.3504544753626690e-02  3.8389945081891574e-01  1.8421586960495251e-01  1.8314333811241748e-01  4.8020417766786810e-02  5.2538598659842575e-02  5.1350200417838929e-02  5.0906209795670197e-02  5.3144484565552971e-02  5.3431353317444613e-02  5.7269252889916092e-02  5.8093984262496394e-02  3.8178068196550469e-01  2.2408939742775599e-01  2.1822733597103872e-01  9.9838325182327770e-01  3.4198917227959080e-01  3.3539697263003371e-01  1.9819172099650234e-01  1.1291767170937344e+00  5.6621575925806733e-01  5.7749344920961243e-01  8.7174245952410490e-01  5.3828682809573625e-01  5.4520160319083011e-01  5.0087422334058794e-02  5.0057463223319172e-02  4.7364366341856798e-02  4.3548449695128763e-02  4.3704105713543731e-02  2.0723959097725808e-01  1.0837239268084817e+00  1.5533297686263769e-01  1.8222114001280934e-01  9.7839635910744502e-02  9.9584221619386168e-02  5.7010791385881644e-02  6.6141903756037435e-01  4.7167616072115247e-02  4.6752437333580109e-02  1.4115409751460106e-01  1.4446836222159670e-01  1.0690250164144550e+00  9.9590009981225569e-01  4.4359756555932238e-02  4.4677592917962569e-02  6.5877960016407500e-01  1.0756242882189084e+00  1.1063655700681343e+00  9.2071295885790064e-02  9.1720737199431704e-02  4.2364769482073844e-01  4.3801982230132444e-02  1.1854360281911856e-01  7.3367657399298292e-01  7.4371298655964180e-01  5.6754514017277095e-02  1.2784744114482982e+00  4.6386980739202235e-02  4.6360111291921594e-02  2.0868236426940898e-01  2.0934420959931443e-01  9.1068485573714567e-02  9.1982929679383915e-02  1.0510671231700701e+00  2.2455218376783631e-01  2.2501236438145469e-01  8.0029401167633651e-01  4.6711259567879110e-02  4.6868286760381440e-02  4.8825161048075653e-02  4.9800006237507209e-02  4.5714723049431645e-02  4.5957509462934233e-02  7.8683823670546693e-01  8.6352309162464358e-01  1.8952441468576584e-01  1.9753047422936140e-01  4.9272629705307755e-02  1.0539320808839487e+00  7.9477856903595623e-01  8.7645544057035851e-01  2.1231659230336680e-01  7.7820668818751726e-01  7.8370393195237675e-01  1.2756857949439302e+00  2.8939452561662588e-01  2.6538252000391732e-01  5.0921380313360236e-02  5.1453615130426664e-02  5.3104469224007501e-02  -2.7040633452322674e-02  -2.7035006826474684e-02  -2.7157055440787670e-02  -2.7143489217223371e-02  -2.4451991421073422e-02  -2.4415071696243820e-02  -2.5006456515414166e-02  -2.5021588214880344e-02  -2.5169441818514136e-02  -2.5182300885836763e-02  -2.5571134579169538e-02  -2.5586053799445726e-02  -2.2493597055129398e-02  -2.2492725018432982e-02  -2.2267287130258526e-02  -2.2499720804438024e-02  -2.6492624437180461e-02  -2.6508655359941433e-02  -2.6279277317088970e-02  -2.6260982962784288e-02  -2.5477168147078760e-02  -2.5476376489981387e-02  -2.5456175653558139e-02  -2.5449870134647872e-02  -2.3320839552334792e-02  -2.3328853525401354e-02  -2.3062701690449737e-02  -2.3606578235341725e-02  -2.3056084207259443e-02  -2.3594869323361051e-02  -2.3758283272917444e-02  -2.3743073264531248e-02  -2.2196594402225163e-02  -1.9156635877693336e-02  -2.2184669581402628e-02  -1.9150392660969653e-02  -2.3856983523254018e-02  -2.3864491405133980e-02  -1.8585364964041874e-02  -1.8587126510317731e-02  -2.3584327186187682e-02  -2.3534323687030855e-02  -2.1598884977519047e-02  -2.1588222422136576e-02  -2.2698670353054069e-02  -2.2004441320242863e-02  -2.1988493089131620e-02  -2.2682799450752505e-02  -2.2699898541341749e-02  -2.1769957431677239e-02  -2.1769099003747450e-02  -2.1574411023261901e-02  -2.1586767782904932e-02  -2.2539405646506281e-02  -1.8303801369353487e-02  -1.9672585325240327e-02  -1.8087727648244373e-02  -1.8094516634273382e-02  -1.7798896722456551e-02  -1.7374010867602249e-02  -2.6666236769169162e-02  -2.6675141438324841e-02  -2.7212563696369957e-02  -2.7216412951559639e-02  -2.3225387864520258e-02  -2.2910432603700657e-02  -2.3275325820151679e-02  -2.2968709205630464e-02  -2.6865416023426399e-02  -2.6852487138630015e-02  -2.7503935965055768e-02  -2.7519220555107988e-02  -2.3756543577676995e-02  -2.3734346504176097e-02  -1.7718621722576534e-02  -1.7780304782429635e-02  -1.7181811954783750e-02  -1.7159396974805390e-02  -2.2840291081138588e-02  -2.2836246502372103e-02  -1.7338468665178203e-02  -1.7321289709935874e-02  -2.2581583810565502e-02  -2.2616154212839037e-02  -2.1248944927315428e-02  -2.3212354547513730e-02  -2.1223759885628687e-02  -2.3208886590201133e-02  -2.1591560597560497e-02  -2.1603712918056402e-02  -2.1248029302859264e-02  -2.1231140602531139e-02  -2.0172160288611012e-02  -2.0252025263603590e-02  -2.1280321278395173e-02  -2.1227904262687849e-02  -2.3314473423619555e-02  -2.3321572650141380e-02  -2.3657368189075885e-02  -2.3666552045466440e-02  -2.0543516063541833e-02  -2.0581088939673888e-02  -2.3744091621677926e-02  -2.3732959960591955e-02  -2.0271496305665788e-02  -2.0259388134971312e-02  -2.5714627786689637e-02  -2.5723340698818296e-02  -2.1445356240448538e-02  -2.1463949533119517e-02  -2.0688878876632715e-02  -2.0678840838772465e-02  -1.5479556766239043e-02  -1.5486077206870685e-02  -2.5995045835232114e-02  -2.6012878042676563e-02  -2.0380818043225401e-02  -2.0324638141566181e-02  -1.5843931891998852e-02  -1.5839013034367994e-02  -1.5263973807258312e-02  -1.5257045052761375e-02  -1.4425446692850823e-02  -2.4237933191250029e-02  -2.4229461876726893e-02  -2.3622091387262588e-02  -2.3633063810131357e-02  -2.3904353470031052e-02  -2.3950094177386930e-02  -2.3340646168664575e-02  -2.3339997843464917e-02  -2.6944337779069471e-02  -2.6952934006209565e-02  -2.7011721218044227e-02  -2.7017762228326438e-02  -2.0470466825680707e-02  -2.0418093227301939e-02  -2.3134941789998958e-02  -2.3212517571904824e-02  -2.0417349689180714e-02  -2.0373961677734840e-02  -1.5125519621113177e-02  -1.4885446291607258e-02  -1.4878251308973805e-02  -8.6942886323935643e-03  -8.6924104018478200e-03  -8.5885193131629064e-03  -8.5880590578982698e-03  -1.3961331648055393e-02  -1.3958888436103187e-02  -2.5185224290553657e-02  -2.5170504853681275e-02  -2.5450688861032932e-02  -2.5449542013314733e-02  -2.5064039307996895e-02  -2.5078276423666040e-02  -2.7734093042318740e-02  -2.7717565354120850e-02  -2.4799685675003593e-02  -2.4791902135092952e-02  -2.7744353839958904e-02  -2.7750253647959407e-02  -2.0032119436651549e-02  -2.0043362471152931e-02  -1.6995486708356888e-02  -1.6995384834651336e-02  -1.8969641840176507e-02  -1.9134526241209076e-02  -1.9254907988234676e-02  -2.2396436259440530e-02  -2.2129262316338577e-02  -1.4140983514515135e-02  -1.4134083286649947e-02  -2.5763617012539378e-02  -2.5766406677676185e-02  -2.4176819690993639e-02  -2.4159368336605674e-02  -2.4700270318406568e-02  -2.4708011545716314e-02  -2.3949779389908186e-02  -2.3950406179286808e-02  -1.8676520390632220e-02  -1.8791488665614354e-02  -2.2911275889987769e-02  -2.2916451469236092e-02  -2.3037982598398430e-02  -2.3188061875623167e-02  -1.6139875180025187e-02  -1.6092183481119460e-02  -1.6080792392817931e-02  -2.6038130516609716e-02  -2.6023070212421756e-02  -1.6884587325131338e-02  -1.6828979475502666e-02  -1.5315405709139491e-02  -1.5314765253085044e-02  -2.0624353105962570e-02  -2.5202986336451086e-02  -2.5211494710505739e-02  -1.5176587557283142e-02  -1.5184171367342205e-02  -1.8503950562164830e-02  -2.4076552886650341e-02  -1.8479111903067887e-02  -2.4075937553829647e-02  -1.4215571152601390e-02  -1.4205428238829214e-02  -2.2861774833756034e-02  -2.2874017931626734e-02  -2.3180117633339228e-02  -2.3198129312408725e-02  -2.0088036828538443e-02  -2.0127447671101518e-02  -2.5712475191874997e-02  -2.5726055235054650e-02  -1.7922108059633627e-02  -2.3775946327199645e-02  -1.8001093857437804e-02  -2.3803640860344946e-02  -2.2535018181295715e-02  -2.2539580531653728e-02  -1.5851213491084530e-02  -1.5877463376895978e-02  -1.6083076258502062e-02  -1.6076669612522822e-02  -1.3332133798484729e-02  -1.3333356719001880e-02  -2.3425762943151737e-02  -2.3413391699874532e-02  -2.3929623514176341e-02  -2.3904101273236202e-02  -2.3837379964462932e-02  -2.3848295381918957e-02  -1.5237014263974660e-02  -1.5226155379564475e-02  -2.4854580269281903e-02  -2.4869517527655705e-02  -2.6815454936242381e-02  -2.6819418615145581e-02  -2.5172667231251226e-02  -2.5179337825901742e-02  -1.9809395661521109e-02  -1.9847532938955120e-02  -2.6160648254672954e-02  -2.6177599168073301e-02  -2.7059492552870393e-02  -2.7042845132065164e-02  -1.9265077873743194e-02  -1.9373701840776660e-02  -1.9653560196645214e-02  -1.9589403211932283e-02  -2.2743327010675909e-02  -2.2760564233070144e-02  -1.2965751543366277e-02  -1.2968405121314912e-02  -1.9407076610840433e-02  -1.9280194664656643e-02  -2.5242831882509031e-02  -2.4795559475848092e-02  -2.5213428979529634e-02  -2.4768061218784915e-02  -2.6916904249960544e-02  -2.6910865715524958e-02  -2.7753693713632129e-02  -2.7755638158256275e-02  -1.8049642541130749e-02  -1.8250566702100665e-02  -2.1871150891939424e-02  -2.1879093238154547e-02  -2.6356870195144173e-02  -2.6362504680242420e-02  -2.7885905971650519e-02  -2.7871010020287777e-02  -2.4210888679944594e-02  -2.4196685729258826e-02  -2.3947455389391126e-02  -2.3991939883989840e-02  -2.0058451956756731e-02  -1.5506428621557031e-02  -1.5509022189936795e-02  -2.0906398708786265e-02  -1.5858841247888902e-02  -1.5959193358441679e-02  -1.5976754027312589e-02  -1.4910684905897890e-02  -1.2509088509278796e-02  -1.2508700260380935e-02  -1.9149219427659486e-02  -1.9012285129088338e-02  -1.2802617321876484e-02  -1.2800363446456258e-02  -1.4215922237018010e-02  -1.5804818316455339e-02  -1.5818670510700326e-02  -1.9176749291529429e-02  -1.9194318131298956e-02  -1.4120181281802422e-02  -1.4115627488834900e-02  -2.3258102122955201e-02  -2.3222149343880425e-02  -2.3812825940515578e-02  -2.3814597206516214e-02  -2.6972592493892750e-02  -2.6955816139141935e-02  -2.3411788500439793e-02  -2.3419988042965280e-02  -2.3110573272929365e-02  -2.6290565322122476e-02  -2.6302443662570486e-02  -2.4752788006695132e-02  -2.4756313733025382e-02  -2.2965635098393455e-02  -1.8507481429338273e-02  -1.8358413395670205e-02  -2.5772113419273081e-02  -2.5783896560601347e-02  -1.8832667080255296e-02  -1.9013085221704366e-02  -1.4408772417270002e-02  -1.4409243967399657e-02  -1.8735570663843407e-02  -1.8630131487259192e-02  -1.4412053924047834e-02  -1.4441444326750083e-02  -1.8072798173268550e-02  -1.8563205946729645e-02  -2.3108379007077566e-02  -1.3988998723059202e-02  -2.2031855049185017e-02  -2.2045610012697572e-02  -2.1040942459533037e-02  -2.1034812825328684e-02  -2.2244291882350938e-02  -2.2248179404887401e-02  -2.2050109570264449e-02  -2.3611001460032855e-02  -2.2044665652592381e-02  -2.3585953687124513e-02  -2.6655538931713969e-02  -2.6670501051515520e-02  -2.5093147324127534e-02  -2.5081906284788728e-02  -2.3933961615057300e-02  -2.3940496064081579e-02  -2.2422020366120825e-02  -2.2394211310712595e-02  -2.5413052282151426e-02  -2.5439269547864050e-02  -2.6186965860557930e-02  -2.6183169035969088e-02  -2.3767448552785626e-02  -2.3779052340119892e-02  -2.0251539194910823e-02  -2.0238145250105203e-02  -2.1366785171083848e-02  -2.1357242640606063e-02  -2.1603256423097676e-02  -2.1592679563694081e-02  -2.5041715914414259e-02  -2.5048002453036091e-02  -1.8793263250785879e-02  -1.8746595323710695e-02  -1.8555952946021276e-02  -1.8370471712346105e-02  -2.4248573112090652e-02  -2.4284524210849479e-02  -2.3341336521931551e-02  -2.3351434442901203e-02  -1.3668978776632456e-02  -1.3673922266193649e-02  -2.1429544344018444e-02  -2.1458579605251358e-02  -2.1720045087254669e-02  -2.1631119656124381e-02  -2.3349305295659550e-02  -2.3368050944205281e-02  -1.8899122439123037e-02  -1.8997264267043373e-02  -2.0411808887482022e-02  -2.0391990731359524e-02  -2.4036654802439342e-02  -2.4022830837956342e-02  -2.4862014235688675e-02  -2.48457451