<?xml version="1.0"?>
<VTKFile type="UnstructuredGrid"  version="0.1"  >
<UnstructuredGrid>
<Piece  NumberOfPoints="1286" NumberOfCells="2474">
<Points>
<DataArray  type="Float64"  NumberOfComponents="3"  format="ascii">0 0 0  0 1 0  1 1 0  1 0 0  1.1 -0.1 0  -0.1 -0.1 0  1.1 1.1 0  -0.1 1.1 0  0.2511673709142097 0.4998809713555282 0  0.4995284806858416 0.4999612285241604 0  0 0.9499999999997918 0  0 0.8999999999995836 0  0 0.8499999999996529 0  0 0.7999999999999998 0  0 0.7500000000003466 0  0 0.7000000000006934 0  0 0.6500000000010401 0  0 0.6000000000013869 0  0 0.5500000000017335 0  0 0.5000000000020587 0  0 0.4500000000018723 0  0 0.4000000000016644 0  0 0.3500000000014564 0  0 0.3000000000012483 0  0 0.2500000000010403 0  0 0.2000000000008322 0  0 0.1500000000006241 0  0 0.100000000000416 0  0 0.05000000000020799 0  0.04999999999989965 0 0  0.09999999999981467 0 0  0.1499999999997036 0 0  0.1999999999995579 0 0  0.2499999999994121 0 0  0.2999999999992664 0 0  0.3499999999991206 0 0  0.3999999999989749 0 0  0.4499999999988292 0 0  0.4999999999986943 0 0  0.5499999999988151 0 0  0.5999999999989468 0 0  0.6499999999990784 0 0  0.69999999999921 0 0  0.7499999999993417 0 0  0.7999999999994734 0 0  0.8499999999996051 0 0  0.8999999999997368 0 0  0.9499999999998684 0 0  1 0.04999999999989965 0  1 0.09999999999981467 0  1 0.1499999999997036 0  1 0.1999999999995579 0  1 0.2499999999994121 0  1 0.2999999999992664 0  1 0.3499999999991206 0  1 0.3999999999989749 0  1 0.4499999999988292 0  1 0.4999999999986943 0  1 0.5499999999988151 0  1 0.5999999999989468 0  1 0.6499999999990784 0  1 0.69999999999921 0  1 0.7499999999993417 0  1 0.7999999999994734 0  1 0.8499999999996051 0  1 0.8999999999997368 0  1 0.9499999999998684 0  0.9499999999997918 1 0  0.8999999999995836 1 0  0.8499999999996529 1 0  0.7999999999999998 1 0  0.7500000000003466 1 0  0.7000000000006934 1 0  0.6500000000010401 1 0  0.6000000000013869 1 0  0.5500000000017335 1 0  0.5000000000020587 1 0  0.4500000000018723 1 0  0.4000000000016644 1 0  0.3500000000014564 1 0  0.3000000000012483 1 0  0.2500000000010403 1 0  0.2000000000008322 1 0  0.1500000000006241 1 0  0.100000000000416 1 0  0.05000000000020799 1 0  -0.1 1.05000000000004 0  -0.1 1.000000000000079 0  -0.1 0.9500000000001624 0  -0.1 0.9000000000003032 0  -0.1 0.850000000000444 0  -0.1 0.8000000000005848 0  -0.1 0.7500000000007256 0  -0.1 0.7000000000008665 0  -0.1 0.6500000000010508 0  -0.1 0.6000000000012352 0  -0.1 0.5500000000014196 0  -0.1 0.500000000001539 0  -0.1 0.4500000000014195 0  -0.1 0.4000000000013 0  -0.1 0.3500000000011588 0  -0.1 0.3000000000010178 0  -0.1 0.2500000000008986 0  -0.1 0.2000000000007579 0  -0.1 0.1500000000006174 0  -0.1 0.1000000000005272 0  -0.1 0.05000000000040083 0  -0.1 2.671196597248127e-13 0  -0.1 -0.0499999999998666 0  -0.0500000000000906 -0.1 0  -1.730560139634463e-13 -0.1 0  0.04999999999975802 -0.1 0  0.09999999999961506 -0.1 0  0.1499999999994613 -0.1 0  0.199999999999302 -0.1 0  0.2499999999991446 -0.1 0  0.2999999999990088 -0.1 0  0.3499999999988296 -0.1 0  0.3999999999986936 -0.1 0  0.4499999999985143 -0.1 0  0.4999999999984002 -0.1 0  0.5499999999985247 -0.1 0  0.5999999999986493 -0.1 0  0.6499999999987955 -0.1 0  0.6999999999989417 -0.1 0  0.7499999999990659 -0.1 0  0.7999999999992116 -0.1 0  0.8499999999993573 -0.1 0  0.8999999999994526 -0.1 0  0.949999999999584 -0.1 0  0.9999999999997226 -0.1 0  1.049999999999861 -0.1 0  1.1 -0.0500000000000906 0  1.1 -1.730560139634463e-13 0  1.1 0.04999999999975802 0  1.1 0.09999999999961506 0  1.1 0.1499999999994613 0  1.1 0.199999999999302 0  1.1 0.2499999999991446 0  1.1 0.2999999999990088 0  1.1 0.3499999999988296 0  1.1 0.3999999999986936 0  1.1 0.4499999999985143 0  1.1 0.4999999999984002 0  1.1 0.5499999999985247 0  1.1 0.5999999999986493 0  1.1 0.6499999999987955 0  1.1 0.6999999999989417 0  1.1 0.7499999999990659 0  1.1 0.7999999999992116 0  1.1 0.8499999999993573 0  1.1 0.8999999999994526 0  1.1 0.949999999999584 0  1.1 0.9999999999997226 0  1.1 1.049999999999861 0  1.05000000000004 1.1 0  1.000000000000079 1.1 0  0.9500000000001624 1.1 0  0.9000000000003032 1.1 0  0.850000000000444 1.1 0  0.8000000000005848 1.1 0  0.7500000000007256 1.1 0  0.7000000000008665 1.1 0  0.6500000000010508 1.1 0  0.6000000000012352 1.1 0  0.5500000000014196 1.1 0  0.500000000001539 1.1 0  0.4500000000014195 1.1 0  0.4000000000013 1.1 0  0.3500000000011588 1.1 0  0.3000000000010178 1.1 0  0.2500000000008986 1.1 0  0.2000000000007579 1.1 0  0.1500000000006174 1.1 0  0.1000000000005272 1.1 0  0.05000000000040083 1.1 0  2.671196597248127e-13 1.1 0  -0.0499999999998666 1.1 0  0.253493497407311 0.4697789000517635 0  0.259790110094839 0.4412201309245655 0  0.2680340364433975 0.4140639934557389 0  0.2788855212746834 0.3880823811868476 0  0.292355509235337 0.3641473195027907 0  0.3081944195435361 0.3423754622729305 0  0.3258739277186288 0.3215213820395087 0  0.3469923369596496 0.3031080740325396 0  0.3701589875578332 0.2885518655584143 0  0.3943797598513359 0.2760466053895645 0  0.4202643143066817 0.2658821561627968 0  0.4477329914478957 0.2580178420217384 0  0.4769314644765296 0.2529879837819179 0  0.507440026815178 0.2514461070161664 0  0.5374739407350121 0.2549852251092685 0  0.5657605641450408 0.2619187565755006 0  0.5925607280395085 0.2703773075915145 0  0.6178346451771973 0.2817965941163479 0  0.6415451831392107 0.2957524836177132 0  0.6634486442427099 0.3128312328505492 0  0.6827784597902034 0.331705669551177 0  0.7001005280776613 0.3534593980641912 0  0.7138571509265031 0.3769908497877762 0  0.7259452480622645 0.4013333828496045 0  0.7365188733186117 0.4274778429230019 0  0.7440437779218918 0.4553674867208048 0  0.7491674642907817 0.4847018639194686 0  0.7491067066556282 0.5153915399101116 0  0.7439036596143003 0.5447125417215699 0  0.7364098764927874 0.5725772489204699 0  0.7258910432629203 0.5987631904009123 0  0.7138416466947874 0.6233094269662915 0  0.700146802499979 0.6469959235721821 0  0.6828884718048263 0.6688249668252932 0  0.6634719547479901 0.6877983756632067 0  0.6417294518161526 0.7047192769847191 0  0.61803657798686 0.7186420412442136 0  0.592700932726645 0.7300544071162166 0  0.5658173014802277 0.7385048348349674 0  0.5375246638162798 0.7453995579199409 0  0.5074954700370209 0.7488977820380343 0  0.4770258056798076 0.747276905651775 0  0.4479170937721573 0.7420464158624971 0  0.4204349492461602 0.7338607152892314 0  0.3946511989859374 0.7235476375381221 0  0.3705766061894398 0.711028521554343 0  0.3475278845077874 0.6966047646232774 0  0.3263179129389571 0.6781760672674754 0  0.308658389106743 0.65743167630959 0  0.292672801830587 0.6356733910845859 0  0.2790375266092285 0.6117005114393826 0  0.2678995468845573 0.5857749477356489 0  0.2595754369367603 0.5585744629927175 0  0.2533261207453559 0.5299754892452241 0  0.5013626101624978 0.6149354850487766 0  0.5070380010208727 0.3792532719345524 0  0.6292040560711379 0.4985796202873395 0  0.3649279552230447 0.4998867343286627 0  0.4103602872058762 0.422669448910899 0  0.4074699670115466 0.5771993439662731 0  0.5788770383352042 0.4059339709354063 0  0.5784880386834884 0.5942119521318702 0  0.4382213505755842 0.6438673925415607 0  0.4860743584136904 0.6823398337901894 0  0.5454411293321448 0.6804745693989015 0  0.433263705083464 0.3523133176992225 0  0.4864768244899849 0.3160509897591663 0  0.5473386042417488 0.3193660751395205 0  0.6503471404528656 0.5879557392119463 0  0.6507928944509224 0.4124311046857136 0  0.345903635029661 0.575971207893143 0  0.3451144008453342 0.4233562038702147 0  0.382583984992321 0.6388172360534055 0  0.3834858819434039 0.3602488188656478 0  0.5920180148377986 0.6513924980801187 0  0.592963891248211 0.3481087715205928 0  0.6894627108934276 0.5001076094543949 0  0.6897628220706297 0.5548922992904376 0  0.6896501603927705 0.4459944715037586 0  0.3070505334263678 0.4540004694863179 0  0.2974644850181949 0.5059839467287305 0  0.6354059231213387 0.3675934616206571 0  0.636012771511152 0.6333922758242467 0  0.3050080587852926 0.5562929499482629 0  0.4251938484005094 0.5132723871587245 0  0.4412542010600893 0.6924888856509396 0  0.441499505519784 0.3077565605816381 0  0.3468786101365672 0.3794885016897925 0  0.3468213770930816 0.6211132247939333 0  0.5630103961963168 0.5249227565676217 0  0.5211031700598515 0.440067589931914 0  0.5200095237737263 0.2892466561373443 0  0.5195147469103331 0.7106891596820475 0  0.4693028686870532 0.5728262748023815 0  0.4680999479655987 0.445250053132927 0  0.3972237412297127 0.6699016551227772 0  0.3979082085617118 0.3305061352438706 0  0.6031690314566167 0.4572058936662642 0  0.6019525130732069 0.5414043334821769 0  0.5816194121707604 0.3154843498959419 0  0.5809422726171246 0.6844441318608315 0  0.3957874939599116 0.5310891332067563 0  0.390219336318527 0.4651583217238692 0  0.4476638857806836 0.4178795335015253 0  0.7096084295546665 0.5304854799739042 0  0.710744063675948 0.4685155899081171 0  0.5432417042306232 0.6099398344323427 0  0.5446903703959436 0.389518347886556 0  0.6923995998489778 0.5893465120724577 0  0.6923914571627127 0.4107583512814957 0  0.4294551249437074 0.6090447502075372 0  0.3043529678176882 0.4177304147009306 0  0.4727369612555937 0.7197308494563737 0  0.4727725936300692 0.2804584458264258 0  0.4610947600191479 0.6676537783714073 0  0.4588273110149964 0.3326595512671874 0  0.6659855294264458 0.3757026739561471 0  0.6658142419913948 0.6245398309236088 0  0.6289560310422015 0.3348247907387049 0  0.6291526514192868 0.6655254297714696 0  0.2831298822902591 0.4712291963489245 0  0.30854146780165 0.5866819412354155 0  0.7220518060559257 0.5000704355244101 0  0.5168761628157146 0.564736390797917 0  0.2840751387248542 0.5360270906080232 0  0.3199925517005934 0.3909700276718659 0  0.4624674182407469 0.6055206011835844 0  0.5669632098268685 0.2906185814180946 0  0.56585126856315 0.7096559974109107 0  0.3542743360620015 0.536822008421056 0  0.3236701166881637 0.5254203492439659 0  0.5613474794915688 0.
[...]
<PointData  Scalars="state"> 
<DataArray  type="Float64"  Name="state"  format="ascii">0.0000000000000000e+00  0.0000000000000000e+00  0.0000000000000000e+00  0.0000000000000000e+00  0.0000000000000000e+00  0.0000000000000000e+00  0.0000000000000000e+00  0.0000000000000000e+00  -1.1398163551948308e-02  1.3617964163783609e+00  0.0000000000000000e+00  0.0000000000000000e+00  0.0000000000000000e+00  0.0000000000000000e+00  0.0000000000000000e+00  0.0000000000000000e+00  0.0000000000000000e+00  0.0000000000000000e+00  0.0000000000000000e+00  0.0000000000000000e+00  0.0000000000000000e+00  0.0000000000000000e+00  0.0000000000000000e+00  0.0000000000000000e+00  0.0000000000000000e+00  0.0000000000000000e+00  0.0000000000000000e+00  0.0000000000000000e+00  0.0000000000000000e+00  0.0000000000000000e+00  0.0000000000000000e+00  0.0000000000000000e+00  0.0000000000000000e+00  0.0000000000000000e+00  0.0000000000000000e+00  0.0000000000000000e+00  0.0000000000000000e+00  0.0000000000000000e+00  0.0000000000000000e+00  0.0000000000000000e+00  0.0000000000000000e+00  0.0000000000000000e+00  0.0000000000000000e+00  0.0000000000000000e+00  0.0000000000000000e+00  0.0000000000000000e+00  0.0000000000000000e+00  0.0000000000000000e+00  0.0000000000000000e+00  0.0000000000000000e+00  0.0000000000000000e+00  0.0000000000000000e+00  0.0000000000000000e+00  0.0000000000000000e+00  0.0000000000000000e+00  0.0000000000000000e+00  0.0000000000000000e+00  0.0000000000000000e+00  0.0000000000000000e+00  0.0000000000000000e+00  0.0000000000000000e+00  0.0000000000000000e+00  0.0000000000000000e+00  0.0000000000000000e+00  0.0000000000000000e+00  0.0000000000000000e+00  0.0000000000000000e+00  0.0000000000000000e+00  0.0000000000000000e+00  0.0000000000000000e+00  0.0000000000000000e+00  0.0000000000000000e+00  0.0000000000000000e+00  0.0000000000000000e+00  0.0000000000000000e+00  0.0000000000000000e+00  0.0000000000000000e+00  0.0000000000000000e+00  0.0000000000000000e+00  0.0000000000000000e+00  0.0000000000000000e+00  0.0000000000000000e+00  0.0000000000000000e+00  0.0000000000000000e+00  0.0000000000000000e+00  0.0000000000000000e+00  0.0000000000000000e+00  0.0000000000000000e+00  0.0000000000000000e+00  0.0000000000000000e+00  0.0000000000000000e+00  0.0000000000000000e+00  0.0000000000000000e+00  0.0000000000000000e+00  0.0000000000000000e+00  0.0000000000000000e+00  0.0000000000000000e+00  0.0000000000000000e+00  0.0000000000000000e+00  0.0000000000000000e+00  0.0000000000000000e+00  0.0000000000000000e+00  0.0000000000000000e+00  0.0000000000000000e+00  0.0000000000000000e+00  0.0000000000000000e+00  0.0000000000000000e+00  0.0000000000000000e+00  0.0000000000000000e+00  0.0000000000000000e+00  0.0000000000000000e+00  0.0000000000000000e+00  0.0000000000000000e+00  0.0000000000000000e+00  0.0000000000000000e+00  0.0000000000000000e+00  0.0000000000000000e+00  0.0000000000000000e+00  0.0000000000000000e+00  0.0000000000000000e+00  0.0000000000000000e+00  0.0000000000000000e+00  0.0000000000000000e+00  0.0000000000000000e+00  0.0000000000000000e+00  0.0000000000000000e+00  0.0000000000000000e+00  0.0000000000000000e+00  0.0000000000000000e+00  0.0000000000000000e+00  0.0000000000000000e+00  0.0000000000000000e+00  0.0000000000000000e+00  0.0000000000000000e+00  0.0000000000000000e+00  0.0000000000000000e+00  0.0000000000000000e+00  0.0000000000000000e+00  0.0000000000000000e+00  0.0000000000000000e+00  0.0000000000000000e+00  0.0000000000000000e+00  0.0000000000000000e+00  0.0000000000000000e+00  0.0000000000000000e+00  0.0000000000000000e+00  0.0000000000000000e+00  0.0000000000000000e+00  0.0000000000000000e+00  0.0000000000000000e+00  0.0000000000000000e+00  0.0000000000000000e+00  0.0000000000000000e+00  0.0000000000000000e+00  0.0000000000000000e+00  0.0000000000000000e+00  0.0000000000000000e+00  0.0000000000000000e+00  0.0000000000000000e+00  0.0000000000000000e+00  0.0000000000000000e+00  0.0000000000000000e+00  0.0000000000000000e+00  0.0000000000000000e+00  0.0000000000000000e+00  0.0000000000000000e+00  0.0000000000000000e+00  0.0000000000000000e+00  0.0000000000000000e+00  0.0000000000000000e+00  0.0000000000000000e+00  0.0000000000000000e+00  0.0000000000000000e+00  0.0000000000000000e+00  0.0000000000000000e+00  0.0000000000000000e+00  0.0000000000000000e+00  0.0000000000000000e+00  -9.0201043540549912e-03  -9.3001999374605800e-03  -5.6566010216181637e-03  -6.1495836971988101e-03  -6.5720614999641757e-03  -8.4762048435349322e-03  -1.9885492511207228e-03  -5.8448022395791504e-03  -9.0621211766220514e-03  -8.7360822251276830e-03  -9.0274873828629365e-03  -8.3969547850672507e-03  -1.0301298715548187e-02  -9.7870536771617611e-03  -9.5562445655568776e-03  -9.1424568117951677e-03  -6.8589591669875952e-03  -8.3026188640835177e-03  -4.1907207992072969e-03  -6.8408596937252937e-03  -8.1771350724709757e-03  -3.6218329998997053e-03  -7.7458518892746155e-03  -8.2892354765545778e-03  -7.7207774494832291e-03  -1.0285171978787496e-02  -8.9050516385830343e-03  -8.8077097818488864e-03  -1.0259848490804361e-02  -7.6369957820867579e-03  -8.2399548273828470e-03  -7.6354727648162094e-03  -3.6857440253752227e-03  -8.3670985578029496e-03  -7.0739034246218866e-03  -4.2874646604376876e-03  -8.3950182278445407e-03  -6.8705229753685546e-03  -9.1924492870127175e-03  -9.6012526744344486e-03  -9.8967911826882710e-03  -1.0397805679426234e-02  -8.4316987230386164e-03  -8.8420509847867129e-03  -8.5578886997499486e-03  -9.1476323962404685e-03  -5.9004770139851944e-03  -2.2089214119181350e-03  -8.6385760485000948e-03  -6.9966756539620520e-03  -3.8759475778320949e-03  -8.5668219665829288e-03  -9.3158880200797916e-03  -8.7388377710887494e-03  9.1776105537007724e-01  8.7942184823671554e-01  8.4513538648726860e-01  8.1356017343496012e-01  9.0328707630194771e-01  8.8741604222946702e-01  8.6395178431529462e-01  8.6539656771179385e-01  5.1698888346535865e-01  1.8357634101377490e-01  1.5049225667974558e-01  4.4044258204631831e-01  1.6711633399090903e-01  1.4456216360704113e-01  2.3365952372764959e-01  2.2863311830656990e-01  2.6499392010261036e-01  2.5510447415642068e-01  1.7418347043806970e-01  1.7466977233286743e-01  2.1020032566210389e-01  1.9928230208565209e-01  1.3691456283235443e-01  1.0850339574020576e-01  1.0908143904914715e-01  1.0792732856504808e-01  8.2500986410767085e-02  1.2001274139963990e-01  1.1511177827601864e-01  8.6864653825649188e-02  1.1585759821151056e+00  9.2190689373954263e-02  9.1726878300531042e-02  1.1313929901444642e-01  1.0941616599293987e-01  1.2113419154595035e+00  1.2247275511472959e+00  6.3493688518439645e-02  6.4750120624334370e-02  1.1395538077778604e+00  1.2230801038853436e+00  8.3896598175910789e-02  9.3340687903400291e-02  9.2324609685964665e-01  9.3343879854771561e-01  8.0790474422621383e-02  8.2589513190927194e-02  9.4059922264360440e-01  8.9865985483961375e-01  1.0123293726035625e+00  6.7006258268240609e-02  6.2883537496032108e-02  9.0568745703694975e-01  9.0209899516891257e-01  6.6739079644789659e-02  6.6778276498048406e-02  8.4360185050085224e-01  6.5415836755078102e-02  5.7022504967311607e-02  5.6923813417922915e-02  2.7689609663945669e-01  2.8862944338560620e-01  7.6696770822607452e-02  7.7271573960927251e-02  7.5333335932213571e-02  7.4733622566210689e-02  6.1077619323357375e-02  6.5461072941054327e-02  5.3766723692999591e-02  1.2117162302125419e+00  5.5392698767612179e-02  6.3929573599253164e-02  9.2950857517157415e-01  5.8437118521128505e-02  5.9137241391262745e-02  6.4514721511938744e-01  2.1463092782638518e-01  4.2626978660185794e-01  4.3910395609771979e-01  6.1835169375392651e-01  6.4806528763312565e-01  6.1070950864089157e-01  6.1680140804433958e-01  6.1491775523844905e-01  6.3419999317591391e-01  6.2735900984166804e-01  7.0870151042184981e-01  4.4287117716014884e-01  6.8437202908572872e-02  6.1494107971929501e-02  6.2133062168927590e-02  6.7790849575545431e-01  5.3465228679007026e-01  6.0611534179236919e-02  6.1298446960370567e-02  1.1954339888962839e+00  5.5564584774738246e-01  5.4287636492605196e-01  8.1523833936323897e-01  5.6330828856809789e-02  5.6033604145959981e-02  2.9096301985951561e-01  6.5948786369017298e-02  6.2359046724961460e-02  5.4062851072456418e-02  5.3576354385541286e-02  3.7000687076412375e-01  1.8184570389385518e-01  1.8037628841780232e-01  4.6434044786872991e-02  5.2441392393158981e-02  4.9290261442475974e-02  4.8909806858162631e-02  5.2878581418636793e-02  5.3048083717928518e-02  5.5977968341178297e-02  5.7012667155253965e-02  3.6516534976053117e-01  2.1889532662153927e-01  2.1386441933432157e-01  9.8854693567106944e-01  3.3168430305932173e-01  3.2580025694426518e-01  1.9530612632932534e-01  1.1197011274833504e+00  5.5756409916697447e-01  5.7032083436066028e-01  8.6358217342755283e-01  5.3944111998402888e-01  5.4525050118637908e-01  4.9515920696009977e-02  4.9562060782852663e-02  4.7354216543665228e-02  4.3911337008042277e-02  4.4255309752801085e-02  2.0397829554326877e-01  1.0752664698568060e+00  1.5273321283109684e-01  1.7897191230022724e-01  9.6493285064099030e-02  9.8017752075501910e-02  5.6234898175911041e-02  6.4917251636158468e-01  4.7701670250622552e-02  4.7282427624065648e-02  1.3981982686917832e-01  1.4296368159455314e-01  1.0589869817967204e+00  9.8704692800313754e-01  4.3006682317754251e-02  4.3217440661217278e-02  6.4438981091223158e-01  1.0654212062901307e+00  1.0967741721840012e+00  8.9585258224276598e-02  8.9112660142419614e-02  4.2330326131135321e-01  4.2289947167981463e-02  1.1614581736253678e-01  7.2167972618115783e-01  7.3216769519339819e-01  5.6210806643121690e-02  1.2694117961893059e+00  4.5951724573166153e-02  4.6114650916212314e-02  2.0283149456822530e-01  2.0349165469076300e-01  8.9785550093514230e-02  9.0584175100991038e-02  1.0414214995383480e+00  2.1893094099774907e-01  2.1973915561674873e-01  7.9296755742461733e-01  4.5084575363267411e-02  4.5285364982808919e-02  4.8538271078926234e-02  4.9399372512811950e-02  4.5927390137877409e-02  4.6152832861456855e-02  7.7683640439757906e-01  8.5655803372197026e-01  1.8497542907798961e-01  1.9268294562857735e-01  4.9250406658293118e-02  1.0455436735143608e+00  7.8563672011471242e-01  8.6960779410885136e-01  2.0981756848638175e-01  7.7010440510608358e-01  7.7504654986168775e-01  1.2665139429357282e+00  2.8205858020999502e-01  2.6016229589321221e-01  4.9792123791866261e-02  5.0469164752280839e-02  5.2619000027439411e-02  -2.7190205752308745e-02  -2.7178944319930207e-02  -2.7307361963551040e-02  -2.7304297497929855e-02  -2.4636001916930977e-02  -2.4592018632467551e-02  -2.5181845392859933e-02  -2.5205977255391684e-02  -2.5351321010606193e-02  -2.5361314008014817e-02  -2.5767455663909814e-02  -2.5767880149072830e-02  -2.2672576864742847e-02  -2.2685230642743831e-02  -2.2445590838654349e-02  -2.2685092261558067e-02  -2.6709801164783942e-02  -2.6706669348753719e-02  -2.6479904435082753e-02  -2.6477835586972528e-02  -2.5674034256410044e-02  -2.5671823317400463e-02  -2.5659682038615374e-02  -2.5646391606776977e-02  -2.3580010349167100e-02  -2.3587174432987718e-02  -2.3326966625231468e-02  -2.3824347164099851e-02  -2.3334144283463528e-02  -2.3826381402851128e-02  -2.3971114535125664e-02  -2.3967776407804578e-02  -2.2303135055908668e-02  -1.9222540963349841e-02  -2.2300273812322795e-02  -1.9221324368256514e-02  -2.4093373297496220e-02  -2.4083754896700147e-02  -1.8645275587810432e-02  -1.8648911930791216e-02  -2.3799918106587978e-02  -2.3766569107961578e-02  -2.1703145618064499e-02  -2.1696817133457003e-02  -2.2984120796366497e-02  -2.2113468631902850e-02  -2.2094038615259614e-02  -2.2983441950250295e-02  -2.2981594365133914e-02  -2.1881097773382846e-02  -2.1886503109854419e-02  -2.1727864569001311e-02  -2.1749508165539454e-02  -2.2822421785458080e-02  -1.8432197741283993e-02  -1.9804867410922154e-02  -1.8215563256707510e-02  -1.8211837757145459e-02  -1.7919973853472916e-02  -1.7492993296514520e-02  -2.6845289715663936e-02  -2.6844132582675411e-02  -2.7386641417699944e-02  -2.7385094630095284e-02  -2.3454178274220909e-02  -2.3173623686860947e-02  -2.3476035156517222e-02  -2.3202591689854016e-02  -2.7034430699431098e-02  -2.7013778467723456e-02  -2.7690289058696037e-02  -2.7693062535860256e-02  -2.3980491393234708e-02  -2.3971655646146738e-02  -1.7826290306592343e-02  -1.7883858577860911e-02  -1.7287398312808115e-02  -1.7260872679056679e-02  -2.3022893176346933e-02  -2.3025121123638640e-02  -1.7442666542580698e-02  -1.7421116191945089e-02  -2.2791506291681734e-02  -2.2807917820541639e-02  -2.1540364830059496e-02  -2.3456313890754352e-02  -2.1530025532828626e-02  -2.3458453017278769e-02  -2.1728542449165649e-02  -2.1729584818926739e-02  -2.1523516354148290e-02  -2.1518452997850795e-02  -2.0430662267432610e-02  -2.0468993838163235e-02  -2.1541789120309868e-02  -2.1495156060215403e-02  -2.3425414556986421e-02  -2.3425403148636434e-02  -2.3760238497025445e-02  -2.3772987251039105e-02  -2.0881743191466084e-02  -2.0916349096792929e-02  -2.3933521203309029e-02  -2.3937833471078147e-02  -2.0504249249701300e-02  -2.0495787905995422e-02  -2.5918141906737174e-02  -2.5909802930876597e-02  -2.1738084213820775e-02  -2.1735825021726787e-02  -2.1041004381520526e-02  -2.1048690781868287e-02  -1.5536781855071329e-02  -1.5541161354388076e-02  -2.6209032470221019e-02  -2.6213883939972638e-02  -2.0582801652325299e-02  -2.0544907029043026e-02  -1.5954656275972093e-02  -1.5941895883450349e-02  -1.5320971446436869e-02  -1.5318818534836862e-02  -1.4520716978098711e-02  -2.4454130334885339e-02  -2.4434710400614509e-02  -2.3735307901543174e-02  -2.3738112470218831e-02  -2.4104349877977622e-02  -2.4149333625234495e-02  -2.3443919737222114e-02  -2.3439749108918981e-02  -2.7158049086772711e-02  -2.7154646171709894e-02  -2.7225321373137615e-02  -2.7222730610956290e-02  -2.0692213690695169e-02  -2.0670129499166408e-02  -2.3326789524589494e-02  -2.3409261775520489e-02  -2.0601133161326678e-02  -2.0575438975061866e-02  -1.5226406390799163e-02  -1.4939104945364302e-02  -1.4930502042385692e-02  -8.7159741963426449e-03  -8.7157310372418390e-03  -8.6090766907915683e-03  -8.6091959282988059e-03  -1.4009188898680634e-02  -1.4010074387773692e-02  -2.5364405766284404e-02  -2.5357389304884952e-02  -2.5644220457987029e-02  -2.5632026221904219e-02  -2.5224058926069708e-02  -2.5226311965902061e-02  -2.7916678851070204e-02  -2.7911970599705949e-02  -2.4943340273949583e-02  -2.4939804891536316e-02  -2.7921047543910393e-02  -2.7935068752732151e-02  -2.0219055445002479e-02  -2.0216526868840110e-02  -1.7118697130079508e-02  -1.7109125071111071e-02  -1.9269477225324950e-02  -1.9369144790573837e-02  -1.9658486317913795e-02  -2.2573993568756050e-02  -2.2302232918196413e-02  -1.4205254281341990e-02  -1.4204403425321813e-02  -2.5901485847579647e-02  -2.5899566215608353e-02  -2.4321868925277261e-02  -2.4298489695023896e-02  -2.4917138013507940e-02  -2.4915665798393265e-02  -2.4093058687332674e-02  -2.4101001309982925e-02  -1.8913603170593592e-02  -1.8999131212304912e-02  -2.3100404227405599e-02  -2.3118585292678712e-02  -2.3307745026709625e-02  -2.3451828648202826e-02  -1.6252191433899256e-02  -1.6168512619375755e-02  -1.6154315758643265e-02  -2.6179022182376270e-02  -2.6175016388877825e-02  -1.6955517861880584e-02  -1.6901545947835283e-02  -1.5377878244968701e-02  -1.5373731565314894e-02  -2.0978940004800210e-02  -2.5343867323760184e-02  -2.5343837206795256e-02  -1.5232655179359502e-02  -1.5242100744606428e-02  -1.8813379796848811e-02  -2.4298925892611005e-02  -1.8815077270422798e-02  -2.4294168749338974e-02  -1.4301834961171296e-02  -1.4287042227297665e-02  -2.3156396077529274e-02  -2.3151817001492908e-02  -2.3458980183534345e-02  -2.3457079679981081e-02  -2.0504916466409243e-02  -2.0516741810785489e-02  -2.5846224352020448e-02  -2.5864816496102800e-02  -1.8296494572820933e-02  -2.4011619793542813e-02  -1.8339429427829339e-02  -2.4026247316634729e-02  -2.2686746336416347e-02  -2.2687883355865111e-02  -1.5928485681444234e-02  -1.5960364224888418e-02  -1.6167126852504401e-02  -1.6168123222346554e-02  -1.3372705214648393e-02  -1.3372701337488923e-02  -2.3653721651087901e-02  -2.3659044031049976e-02  -2.4125441195682013e-02  -2.4118403737751978e-02  -2.4015299676494840e-02  -2.4012503698949302e-02  -1.5309659542622523e-02  -1.5295310836801225e-02  -2.5069433655103820e-02  -2.5068478912018789e-02  -2.7013111592507928e-02  -2.7012436556059529e-02  -2.5367742698309329e-02  -2.5386156175301103e-02  -2.0020626903986184e-02  -2.0048547812695206e-02  -2.6382559176735272e-02  -2.6383044307195614e-02  -2.7254479270687269e-02  -2.7251125826235276e-02  -1.9499925766354995e-02  -1.9575507286854876e-02  -1.9668095163838835e-02  -1.9656600937490786e-02  -2.2891914700388337e-02  -2.2916777298550992e-02  -1.3000498940516327e-02  -1.3000701515422883e-02  -1.9428140532037612e-02  -1.9323512369732600e-02  -2.5449294761164167e-02  -2.5005136109984935e-02  -2.5436471654470688e-02  -2.4994693152072742e-02  -2.7118475877795707e-02  -2.7101609987766003e-02  -2.7920473747594224e-02  -2.7929399418192107e-02  -1.8261412360394004e-02  -1.8388085798946484e-02  -2.2022361105635588e-02  -2.2025783537945327e-02  -2.6572188846632851e-02  -2.6567575707046810e-02  -2.8058122130034127e-02  -2.8055126881745347e-02  -2.4421208803277975e-02  -2.4413144907210395e-02  -2.4191975915305173e-02  -2.4209332689010776e-02  -2.0204401221212153e-02  -1.5596825885721690e-02  -1.5592480848341417e-02  -2.1062175460871531e-02  -1.5942091626258762e-02  -1.6045365254868549e-02  -1.6067246389681662e-02  -1.4989796802863282e-02  -1.2538448393657489e-02  -1.2537144431669362e-02  -1.9480722360516078e-02  -1.9329738364956963e-02  -1.2833112556394067e-02  -1.2832843954947283e-02  -1.4299226599615592e-02  -1.5859328166068623e-02  -1.5871484675886109e-02  -1.9611243598857454e-02  -1.9624713534260967e-02  -1.4167163275891164e-02  -1.4166641696551786e-02  -2.3461168855041910e-02  -2.3443928100599323e-02  -2.4052731489977990e-02  -2.4043053153081254e-02  -2.7170103552890713e-02  -2.7165832061275395e-02  -2.3628803511512638e-02  -2.3625165204036524e-02  -2.3359631022730223e-02  -2.6478371729896821e-02  -2.6500269733767380e-02  -2.4953325038223374e-02  -2.4959898319714294e-02  -2.3217303157112169e-02  -1.8543845214160044e-02  -1.8468168769033497e-02  -2.5959004792310170e-02  -2.5961986099647349e-02  -1.9221663955244130e-02  -1.9324570281282476e-02  -1.4492058613435638e-02  -1.4486670685611842e-02  -1.9025465885348813e-02  -1.8962352452856247e-02  -1.4473644995568772e-02  -1.4504858469629242e-02  -1.8264012008198233e-02  -1.8670910720732049e-02  -2.3337496522294401e-02  -1.4070635080095529e-02  -2.2342015015745224e-02  -2.2341296239479745e-02  -2.1207176118746285e-02  -2.1190174549680835e-02  -2.2422014013011127e-02  -2.2412509888041204e-02  -2.2330982086878674e-02  -2.3853882576079968e-02  -2.2327623112706644e-02  -2.3834999605371970e-02  -2.6842782839963112e-02  -2.6844418086471679e-02  -2.5213282971444071e-02  -2.5210883006646149e-02  -2.4126669704448211e-02  -2.4135928584865577e-02  -2.2664655398493942e-02  -2.2654670411557443e-02  -2.5633306356422220e-02  -2.5637846879687846e-02  -2.6357647611656373e-02  -2.6357580796571477e-02  -2.3968477550569824e-02  -2.3973719124046170e-02  -2.0339113246763452e-02  -2.0323243921952110e-02  -2.1455036905881585e-02  -2.1448786386232089e-02  -2.1694836867077783e-02  -2.1691928135360809e-02  -2.5157244113599899e-02  -2.5167654533531154e-02  -1.9252270582221415e-02  -1.9232872567990587e-02  -1.8742290802961609e-02  -1.8565083636425207e-02  -2.4402167851977380e-02  -2.4434734671407807e-02  -2.3529342143443339e-02  -2.3550951432995938e-02  -1.3744141853415428e-02  -1.3754035530212443e-02  -2.1549635242300230e-02  -2.1574299343663218e-02  -2.2028379658638585e-02  -2.1947335605568125e-02  -2.3492211636840885e-02  -2.3517588248864400e-02  -1.9316921980141552e-02  -1.9379835515613814e-02  -2.0528538883924387e-02  -2.0504339991194002e-02  -2.4253658300721331e-02  -2.4257703380735074e-02  -2.5001627744371202e-02  -2.49800251