<?xml version="1.0"?>
<VTKFile type="UnstructuredGrid"  version="0.1"  >
<UnstructuredGrid>
<Piece  NumberOfPoints="1286" NumberOfCells="2474">
<Points>
<DataArray  type="Float64"  NumberOfComponents="3"  format="ascii">0 0 0  0 1 0  1 1 0  1 0 0  1.1 -0.1 0  -0.1 -0.1 0  1.1 1.1 0  -0.1 1.1 0  0.2521595819070067 0.4996850975608403 0  0.4995523056334978 0.4999482180971048 0  0 0.9499999999997918 0  0 0.8999999999995836 0  0 0.8499999999996529 0  0 0.7999999999999998 0  0 0.7500000000003466 0  0 0.7000000000006934 0  0 0.6500000000010401 0  0 0.6000000000013869 0  0 0.5500000000017335 0  0 0.5000000000020587 0  0 0.4500000000018723 0  0 0.4000000000016644 0  0 0.3500000000014564 0  0 0.3000000000012483 0  0 0.2500000000010403 0  0 0.2000000000008322 0  0 0.1500000000006241 0  0 0.100000000000416 0  0 0.05000000000020799 0  0.04999999999989965 0 0  0.09999999999981467 0 0  0.1499999999997036 0 0  0.1999999999995579 0 0  0.2499999999994121 0 0  0.2999999999992664 0 0  0.3499999999991206 0 0  0.3999999999989749 0 0  0.4499999999988292 0 0  0.4999999999986943 0 0  0.5499999999988151 0 0  0.5999999999989468 0 0  0.6499999999990784 0 0  0.69999999999921 0 0  0.7499999999993417 0 0  0.7999999999994734 0 0  0.8499999999996051 0 0  0.8999999999997368 0 0  0.9499999999998684 0 0  1 0.04999999999989965 0  1 0.09999999999981467 0  1 0.1499999999997036 0  1 0.1999999999995579 0  1 0.2499999999994121 0  1 0.2999999999992664 0  1 0.3499999999991206 0  1 0.3999999999989749 0  1 0.4499999999988292 0  1 0.4999999999986943 0  1 0.5499999999988151 0  1 0.5999999999989468 0  1 0.6499999999990784 0  1 0.69999999999921 0  1 0.7499999999993417 0  1 0.7999999999994734 0  1 0.8499999999996051 0  1 0.8999999999997368 0  1 0.9499999999998684 0  0.9499999999997918 1 0  0.8999999999995836 1 0  0.8499999999996529 1 0  0.7999999999999998 1 0  0.7500000000003466 1 0  0.7000000000006934 1 0  0.6500000000010401 1 0  0.6000000000013869 1 0  0.5500000000017335 1 0  0.5000000000020587 1 0  0.4500000000018723 1 0  0.4000000000016644 1 0  0.3500000000014564 1 0  0.3000000000012483 1 0  0.2500000000010403 1 0  0.2000000000008322 1 0  0.1500000000006241 1 0  0.100000000000416 1 0  0.05000000000020799 1 0  -0.1 1.05000000000004 0  -0.1 1.000000000000079 0  -0.1 0.9500000000001624 0  -0.1 0.9000000000003032 0  -0.1 0.850000000000444 0  -0.1 0.8000000000005848 0  -0.1 0.7500000000007256 0  -0.1 0.7000000000008665 0  -0.1 0.6500000000010508 0  -0.1 0.6000000000012352 0  -0.1 0.5500000000014196 0  -0.1 0.500000000001539 0  -0.1 0.4500000000014195 0  -0.1 0.4000000000013 0  -0.1 0.3500000000011588 0  -0.1 0.3000000000010178 0  -0.1 0.2500000000008986 0  -0.1 0.2000000000007579 0  -0.1 0.1500000000006174 0  -0.1 0.1000000000005272 0  -0.1 0.05000000000040083 0  -0.1 2.671196597248127e-13 0  -0.1 -0.0499999999998666 0  -0.0500000000000906 -0.1 0  -1.730560139634463e-13 -0.1 0  0.04999999999975802 -0.1 0  0.09999999999961506 -0.1 0  0.1499999999994613 -0.1 0  0.199999999999302 -0.1 0  0.2499999999991446 -0.1 0  0.2999999999990088 -0.1 0  0.3499999999988296 -0.1 0  0.3999999999986936 -0.1 0  0.4499999999985143 -0.1 0  0.4999999999984002 -0.1 0  0.5499999999985247 -0.1 0  0.5999999999986493 -0.1 0  0.6499999999987955 -0.1 0  0.6999999999989417 -0.1 0  0.7499999999990659 -0.1 0  0.7999999999992116 -0.1 0  0.8499999999993573 -0.1 0  0.8999999999994526 -0.1 0  0.949999999999584 -0.1 0  0.9999999999997226 -0.1 0  1.049999999999861 -0.1 0  1.1 -0.0500000000000906 0  1.1 -1.730560139634463e-13 0  1.1 0.04999999999975802 0  1.1 0.09999999999961506 0  1.1 0.1499999999994613 0  1.1 0.199999999999302 0  1.1 0.2499999999991446 0  1.1 0.2999999999990088 0  1.1 0.3499999999988296 0  1.1 0.3999999999986936 0  1.1 0.4499999999985143 0  1.1 0.4999999999984002 0  1.1 0.5499999999985247 0  1.1 0.5999999999986493 0  1.1 0.6499999999987955 0  1.1 0.6999999999989417 0  1.1 0.7499999999990659 0  1.1 0.7999999999992116 0  1.1 0.8499999999993573 0  1.1 0.8999999999994526 0  1.1 0.949999999999584 0  1.1 0.9999999999997226 0  1.1 1.049999999999861 0  1.05000000000004 1.1 0  1.000000000000079 1.1 0  0.9500000000001624 1.1 0  0.9000000000003032 1.1 0  0.850000000000444 1.1 0  0.8000000000005848 1.1 0  0.7500000000007256 1.1 0  0.7000000000008665 1.1 0  0.6500000000010508 1.1 0  0.6000000000012352 1.1 0  0.5500000000014196 1.1 0  0.500000000001539 1.1 0  0.4500000000014195 1.1 0  0.4000000000013 1.1 0  0.3500000000011588 1.1 0  0.3000000000010178 1.1 0  0.2500000000008986 1.1 0  0.2000000000007579 1.1 0  0.1500000000006174 1.1 0  0.1000000000005272 1.1 0  0.05000000000040083 1.1 0  2.671196597248127e-13 1.1 0  -0.0499999999998666 1.1 0  0.2537515500379076 0.4695001244682179 0  0.2588160413571964 0.4407459264784985 0  0.2667173471457127 0.4135332008428154 0  0.2777333797452617 0.3875132597999781 0  0.2913959970883836 0.363480762472752 0  0.3072363387848582 0.3414192570506323 0  0.3255090195137655 0.3207960765296578 0  0.3465603094666607 0.302098590679494 0  0.3692335280702617 0.2866067397022674 0  0.3933361249646949 0.2740333835016999 0  0.4192135301109887 0.2643646546455344 0  0.446939714089316 0.2575807729695079 0  0.4765074513166929 0.2537845898210683 0  0.5074106906709781 0.2527152310703227 0  0.5379115208102434 0.2551112585139402 0  0.5664908731760195 0.2606477851472752 0  0.593219219610319 0.2688689049610701 0  0.618395979110176 0.2804172259866921 0  0.6418510871784973 0.2949718122017454 0  0.6637136793690539 0.3123346386628804 0  0.6831364877960041 0.3314519095562124 0  0.7008402576760387 0.3531753896819825 0  0.7157677264947108 0.3762332404585688 0  0.7280501915235792 0.4004791049688025 0  0.7379074383093159 0.4268622511593092 0  0.7445527434542889 0.4549873292606989 0  0.7482880868746421 0.4845933224528117 0  0.748112565494006 0.5153282303955287 0  0.7441133775853763 0.5449497706682901 0  0.7374367544132593 0.5729909175649938 0  0.7276388365841521 0.5994222210789558 0  0.7154650646627753 0.6240149733762684 0  0.7007649731099367 0.6473745902871938 0  0.6832823967891544 0.6692821776666074 0  0.6638774504474376 0.6885546052543905 0  0.6421669582383701 0.7057162923698921 0  0.6186572561670958 0.7201134708344266 0  0.5933364471210004 0.7315619401354515 0  0.5664549528154776 0.73967646419953 0  0.5378619757959949 0.7451388984489568 0  0.5073330564103151 0.7475420392394184 0  0.4765899215586187 0.7464529568010304 0  0.4473417027924934 0.7424885045042567 0  0.4196040335234456 0.735324309298569 0  0.393833785580898 0.7254101690536011 0  0.3698998508798364 0.7127744120160371 0  0.3473614279885607 0.6973298752752808 0  0.3261025634572836 0.678630872031341 0  0.3076614577587298 0.6583075782269907 0  0.2915842716173823 0.6364944982104214 0  0.2778181789699804 0.6124843050467018 0  0.2666916816225477 0.5863786437241417 0  0.2587283951496372 0.5588999105854692 0  0.253711552091996 0.5299515403780954 0  0.5013432846760174 0.6150577286479388 0  0.5070155709461811 0.3791194626194711 0  0.6293396044935335 0.4985543260774333 0  0.3648164205527404 0.4998547578208695 0  0.4102162756289268 0.4225048683522475 0  0.4073407980061154 0.5773341953117779 0  0.5789986500500606 0.4057954504496936 0  0.5786050302782264 0.5943443778112748 0  0.4380568612835081 0.6440891265027663 0  0.4859458076553889 0.6824110596946399 0  0.5455879098320942 0.68071979689893 0  0.433020138856585 0.3520234027995736 0  0.4863208203966231 0.3159562673478064 0  0.5475072004846468 0.3190803138183849 0  0.6506706896436795 0.5881635847368416 0  0.6511767747886085 0.4122060125558658 0  0.3456267857275667 0.5761971252163803 0  0.3448208331203647 0.4230889994210154 0  0.3823112592748664 0.6392363147458078 0  0.3831453287534975 0.3597640414611074 0  0.5922375338592432 0.651744616230012 0  0.593188354402253 0.3477697632875965 0  0.6895586941193833 0.5000621806487379 0  0.6901704372699775 0.5550875905574669 0  0.690170172190454 0.4457141805834411 0  0.3067192225453272 0.4537411985513976 0  0.2974712047107336 0.5059297430685411 0  0.6357533451359545 0.3672884740780721 0  0.636345643474521 0.6337467941151922 0  0.304609924438103 0.5565270319835444 0  0.4250815506165573 0.5132821363249488 0  0.4408864388551515 0.6929762643735727 0  0.4410333917152569 0.3072362432010639 0  0.3464238988279905 0.3790089191599411 0  0.346390408091221 0.6215559667005174 0  0.5631172629723572 0.5249551073848084 0  0.5211352117139744 0.4399581290231899 0  0.5200947632959458 0.2892988855330283 0  0.5195604453959751 0.7105809808016125 0  0.4692413323484316 0.5729364667338211 0  0.468033122027446 0.4451385909480731 0  0.3968740636909896 0.670565084369673 0  0.397444885993083 0.3297651263657576 0  0.6033215721654964 0.4571168003849721 0  0.6020946424090122 0.5414644247763246 0  0.5819333546671971 0.3148979425966272 0  0.5812506443445283 0.6850335629338781 0  0.3956558812971112 0.531138989808466 0  0.3900824532238468 0.4650538230496514 0  0.447548652371498 0.4177228804126015 0  0.7097046958860136 0.5305796499685882 0  0.7109643411716787 0.4682950971897114 0  0.543306955347963 0.6100713772633886 0  0.5447551491183455 0.3893768671237036 0  0.6931873917257914 0.5897143599035742 0  0.6933528675767092 0.4103189558848418 0  0.429326607138928 0.6092141292498311 0  0.3036848749464766 0.4173188872133241 0  0.4724122202713719 0.7196250851006909 0  0.4724043686227825 0.2805357683614378 0  0.4609139117906605 0.6678569738060035 0  0.4585890650636431 0.3324184837717865 0  0.6666192474416909 0.3753507693368889 0  0.6663741620902393 0.624927198693436 0  0.629286005173025 0.3343346929113676 0  0.6295121946798227 0.6661111437287084 0  0.2830686024453472 0.4709913843175476 0  0.3079045813617933 0.5871048254659056 0  0.7218443670714119 0.5000032335326799 0  0.5169039764558487 0.5648324713955573 0  0.2839202363259199 0.5361367042758292 0  0.3193450977077552 0.3904763687242969 0  0.4623835389447893 0.6056535927166966 0  0.5673790920529969 0.2899045290156705 0  0.5662282708875382 0.7103174839359508 0  0.3541349035468653 0.5368933598367793 0  0.3235267843001271 0.5254670787785937 0  0.561471446138684
[...]
<PointData  Scalars="state"> 
<DataArray  type="Float64"  Name="state"  format="ascii">0.0000000000000000e+00  0.0000000000000000e+00  0.0000000000000000e+00  0.0000000000000000e+00  0.0000000000000000e+00  0.0000000000000000e+00  0.0000000000000000e+00  0.0000000000000000e+00  -1.0420886734775618e-02  1.3728229867309589e+00  0.0000000000000000e+00  0.0000000000000000e+00  0.0000000000000000e+00  0.0000000000000000e+00  0.0000000000000000e+00  0.0000000000000000e+00  0.0000000000000000e+00  0.0000000000000000e+00  0.0000000000000000e+00  0.0000000000000000e+00  0.0000000000000000e+00  0.0000000000000000e+00  0.0000000000000000e+00  0.0000000000000000e+00  0.0000000000000000e+00  0.0000000000000000e+00  0.0000000000000000e+00  0.0000000000000000e+00  0.0000000000000000e+00  0.0000000000000000e+00  0.0000000000000000e+00  0.0000000000000000e+00  0.0000000000000000e+00  0.0000000000000000e+00  0.0000000000000000e+00  0.0000000000000000e+00  0.0000000000000000e+00  0.0000000000000000e+00  0.0000000000000000e+00  0.0000000000000000e+00  0.0000000000000000e+00  0.0000000000000000e+00  0.0000000000000000e+00  0.0000000000000000e+00  0.0000000000000000e+00  0.0000000000000000e+00  0.0000000000000000e+00  0.0000000000000000e+00  0.0000000000000000e+00  0.0000000000000000e+00  0.0000000000000000e+00  0.0000000000000000e+00  0.0000000000000000e+00  0.0000000000000000e+00  0.0000000000000000e+00  0.0000000000000000e+00  0.0000000000000000e+00  0.0000000000000000e+00  0.0000000000000000e+00  0.0000000000000000e+00  0.0000000000000000e+00  0.0000000000000000e+00  0.0000000000000000e+00  0.0000000000000000e+00  0.0000000000000000e+00  0.0000000000000000e+00  0.0000000000000000e+00  0.0000000000000000e+00  0.0000000000000000e+00  0.0000000000000000e+00  0.0000000000000000e+00  0.0000000000000000e+00  0.0000000000000000e+00  0.0000000000000000e+00  0.0000000000000000e+00  0.0000000000000000e+00  0.0000000000000000e+00  0.0000000000000000e+00  0.0000000000000000e+00  0.0000000000000000e+00  0.0000000000000000e+00  0.0000000000000000e+00  0.0000000000000000e+00  0.0000000000000000e+00  0.0000000000000000e+00  0.0000000000000000e+00  0.0000000000000000e+00  0.0000000000000000e+00  0.0000000000000000e+00  0.0000000000000000e+00  0.0000000000000000e+00  0.0000000000000000e+00  0.0000000000000000e+00  0.0000000000000000e+00  0.0000000000000000e+00  0.0000000000000000e+00  0.0000000000000000e+00  0.0000000000000000e+00  0.0000000000000000e+00  0.0000000000000000e+00  0.0000000000000000e+00  0.0000000000000000e+00  0.0000000000000000e+00  0.0000000000000000e+00  0.0000000000000000e+00  0.0000000000000000e+00  0.0000000000000000e+00  0.0000000000000000e+00  0.0000000000000000e+00  0.0000000000000000e+00  0.0000000000000000e+00  0.0000000000000000e+00  0.0000000000000000e+00  0.0000000000000000e+00  0.0000000000000000e+00  0.0000000000000000e+00  0.0000000000000000e+00  0.0000000000000000e+00  0.0000000000000000e+00  0.0000000000000000e+00  0.0000000000000000e+00  0.0000000000000000e+00  0.0000000000000000e+00  0.0000000000000000e+00  0.0000000000000000e+00  0.0000000000000000e+00  0.0000000000000000e+00  0.0000000000000000e+00  0.0000000000000000e+00  0.0000000000000000e+00  0.0000000000000000e+00  0.0000000000000000e+00  0.0000000000000000e+00  0.0000000000000000e+00  0.0000000000000000e+00  0.0000000000000000e+00  0.0000000000000000e+00  0.0000000000000000e+00  0.0000000000000000e+00  0.0000000000000000e+00  0.0000000000000000e+00  0.0000000000000000e+00  0.0000000000000000e+00  0.0000000000000000e+00  0.0000000000000000e+00  0.0000000000000000e+00  0.0000000000000000e+00  0.0000000000000000e+00  0.0000000000000000e+00  0.0000000000000000e+00  0.0000000000000000e+00  0.0000000000000000e+00  0.0000000000000000e+00  0.0000000000000000e+00  0.0000000000000000e+00  0.0000000000000000e+00  0.0000000000000000e+00  0.0000000000000000e+00  0.0000000000000000e+00  0.0000000000000000e+00  0.0000000000000000e+00  0.0000000000000000e+00  0.0000000000000000e+00  0.0000000000000000e+00  0.0000000000000000e+00  0.0000000000000000e+00  0.0000000000000000e+00  0.0000000000000000e+00  0.0000000000000000e+00  0.0000000000000000e+00  0.0000000000000000e+00  0.0000000000000000e+00  0.0000000000000000e+00  0.0000000000000000e+00  0.0000000000000000e+00  0.0000000000000000e+00  0.0000000000000000e+00  0.0000000000000000e+00  -8.3162724363007208e-03  -9.0868033999833529e-03  -5.4473072654426576e-03  -5.8296055395703301e-03  -6.2255667718252488e-03  -8.1302422393471473e-03  -1.3569819443553345e-03  -5.4419656453726217e-03  -9.0974416284721558e-03  -8.7543363012526562e-03  -9.0084376674726616e-03  -7.9594417935381252e-03  -9.3653114237137076e-03  -8.6295599730621605e-03  -8.9004696957410371e-03  -9.0784257463875761e-03  -6.7887869094137646e-03  -8.1890521950543933e-03  -3.7591152215305642e-03  -6.2745880197182299e-03  -7.5986529318985713e-03  -3.0214786415132945e-03  -7.6763058812918403e-03  -8.5169829073584672e-03  -7.6683185430996897e-03  -9.8532749537222977e-03  -7.9834487597226760e-03  -7.8720595483143217e-03  -9.7247998621451497e-03  -7.4496040937256439e-03  -8.3368718858534627e-03  -7.5271543350024419e-03  -3.1182202006291588e-03  -7.8566487707103644e-03  -6.6579810470092787e-03  -3.9269976255232606e-03  -8.3211388559272272e-03  -6.8339215847250329e-03  -9.0908804262266642e-03  -8.9185702077935174e-03  -8.7809888093401747e-03  -9.5113686409514699e-03  -8.0334508874346511e-03  -8.8808009915045238e-03  -8.6674217902949890e-03  -9.0992981122611262e-03  -5.4052627865655897e-03  -1.5592002760159349e-03  -8.3471537718978681e-03  -6.7793496578744793e-03  -3.5987491626771322e-03  -8.4173796089627526e-03  -9.0556574228579274e-03  -7.9674100150034250e-03  9.2798881787491883e-01  8.8947819527436089e-01  8.5177232182447193e-01  8.1913118572895138e-01  9.1115805650851134e-01  8.9484592979131272e-01  8.7084133463098057e-01  8.7161755843645516e-01  5.3523522345586050e-01  1.8696191600476431e-01  1.5212991095751005e-01  4.5964631629445157e-01  1.7064286156764882e-01  1.4594414501196362e-01  2.4258875497310059e-01  2.3831321300368882e-01  2.7568040709579383e-01  2.6518545913941849e-01  1.8014625623772434e-01  1.8101310170216370e-01  2.1715989157815285e-01  2.0527148353138397e-01  1.4040216714766440e-01  1.0962053793175279e-01  1.1009859670956125e-01  1.0946661529992488e-01  8.5180797494368188e-02  1.2425670941214248e-01  1.1917276953964125e-01  8.8195349511160134e-02  1.1687437010807873e+00  9.2880676692919384e-02  9.2708765695038747e-02  1.1596438737779192e-01  1.1194539632896609e-01  1.2217818415754540e+00  1.2351048093727290e+00  6.5430679560866511e-02  6.6763557896793196e-02  1.1498400840250258e+00  1.2338452055043780e+00  8.4426849290554509e-02  9.3908901131268110e-02  9.3116114012732554e-01  9.4189053553104429e-01  8.0514473713021062e-02  8.2335410436816775e-02  9.4980599036987523e-01  9.0758969071533613e-01  1.0235389308965797e+00  6.8732731759679797e-02  6.4405443384785266e-02  9.1311737194877207e-01  9.0919305126807404e-01  6.6152106165289243e-02  6.5936071851744382e-02  8.5009660996388836e-01  6.5294051164847974e-02  5.8601947671316032e-02  5.8704664464064020e-02  2.8285606679756020e-01  2.9610958759051037e-01  7.7511020902887917e-02  7.8105690796052341e-02  7.6673811611566056e-02  7.5762128717639862e-02  6.2283902855531703e-02  6.5195326769699496e-02  5.5789020184294463e-02  1.2219965021922021e+00  5.6572848421758255e-02  6.4198506765876531e-02  9.3662219134557934e-01  5.8433952695971542e-02  5.9232160899229502e-02  6.5717428253422971e-01  2.1770966475675946e-01  4.4077400549229512e-01  4.5422904362161087e-01  6.3065063476026817e-01  6.4815652689530401e-01  6.1045210581343967e-01  6.3102044914906619e-01  6.2926947780698894e-01  6.5234076466100777e-01  6.4453280154477011e-01  7.2392235870102117e-01  4.4618662298576156e-01  6.8479531857974979e-02  6.1390232087862477e-02  6.1998312649577503e-02  6.9599290117857970e-01  5.4105287999111895e-01  6.1678752813082029e-02  6.2421257572805124e-02  1.2061051282256512e+00  5.7039962942127298e-01  5.5526514111321745e-01  8.2237462260967287e-01  5.6392339202392776e-02  5.5872889684312400e-02  2.9373923924349010e-01  6.7441191616670684e-02  6.3605213934938815e-02  5.4263273178992252e-02  5.3563907275307736e-02  3.8550696422375275e-01  1.8482832916314879e-01  1.8377156817985277e-01  4.8161076333140693e-02  5.2612431149761441e-02  5.1499634668999011e-02  5.1047136657204992e-02  5.3230776629509119e-02  5.3525258895908472e-02  5.7401977263999787e-02  5.8218860731872359e-02  3.8351302372064305e-01  2.2487905367943384e-01  2.1898364722058364e-01  9.9991530046362442e-01  3.4338127871938445e-01  3.3667474289120086e-01  1.9886498532622357e-01  1.1307827108379040e+00  5.6799474126514893e-01  5.7907951834935545e-01  8.7302503992694058e-01  5.3964210504122156e-01  5.4664922762495860e-01  5.0176605535145698e-02  5.0144745546128654e-02  4.7438420013611177e-02  4.3569178287856780e-02  4.3719113007920141e-02  2.0791552051727777e-01  1.0852626350049699e+00  1.5572525427030981e-01  1.8273052330210790e-01  9.8051013783035060e-02  9.9819788951765132e-02  5.7138259615498940e-02  6.6316220375287893e-01  4.7213884520660963e-02  4.6797202675757821e-02  1.4149302386460696e-01  1.4481882096970577e-01  1.0705904743939474e+00  9.9740992241304260e-01  4.4464394863375521e-02  4.4785240480723021e-02  6.6062640562488995e-01  1.0772316391359060e+00  1.1079287892304019e+00  9.2318051242366680e-02  9.1981678079576412e-02  4.2490168267436113e-01  4.3923399098099863e-02  1.1884389564937492e-01  7.3533802408227011e-01  7.4519063846853983e-01  5.6873215284654347e-02  1.2799991134416260e+00  4.6460760338377392e-02  4.6430555629639679e-02  2.0945756327572421e-01  2.1011441920898655e-01  9.1268018505459528e-02  9.2175396270045395e-02  1.0526186407204237e+00  2.2541806233395068e-01  2.2581161182927006e-01  8.0147383539575068e-01  4.6830303765837161e-02  4.6989543763175615e-02  4.8919236026213224e-02  4.9890604713546637e-02  4.5776613767836150e-02  4.6019187502104535e-02  7.8815870141848099e-01  8.6470723499659330e-01  1.9016184847653220e-01  1.9819488987384951e-01  4.9347474877330585e-02  1.0554802942708907e+00  7.9605376458566990e-01  8.7762667670591366e-01  2.1304612410769508e-01  7.7943438637009688e-01  7.8499776029663770e-01  1.2771679943334691e+00  2.9053557013857356e-01  2.6637727648191856e-01  5.1032923068647575e-02  5.1557821326268766e-02  5.3200706283009672e-02  -2.7016170872201296e-02  -2.7011293263792032e-02  -2.7132333980179908e-02  -2.7117568076237171e-02  -2.4421182034258474e-02  -2.4385193814033743e-02  -2.4977178095681361e-02  -2.4991173320024471e-02  -2.5139376512027488e-02  -2.5152740828464842e-02  -2.5539366353908684e-02  -2.5555774464539441e-02  -2.2463800020628911e-02  -2.2461408633923430e-02  -2.2237800849495469e-02  -2.2468019319460658e-02  -2.6457299634845909e-02  -2.6474658070636342e-02  -2.6243907731965690e-02  -2.6224337241606138e-02  -2.5441280791929154e-02  -2.5441242916640926e-02  -2.5418151129404730e-02  -2.5413431596730245e-02  -2.3280890724386064e-02  -2.3288801507033132e-02  -2.3024476322141017e-02  -2.3569539618435126e-02  -2.3016179319173387e-02  -2.3556543117488407e-02  -2.3721454848571823e-02  -2.3706281753091148e-02  -2.2179271772643568e-02  -1.9145978572231739e-02  -2.2166537764213397e-02  -1.9139181845804331e-02  -2.3817694700511031e-02  -2.3827289646466035e-02  -1.8575620518745201e-02  -1.8577080894379032e-02  -2.3545497434155994e-02  -2.3494796796844013e-02  -2.1581819486183467e-02  -2.1570686831849983e-02  -2.2657132153020679e-02  -2.1986342799404906e-02  -2.1970972145945976e-02  -2.2640672213012358e-02  -2.2660054945324783e-02  -2.1751603891125633e-02  -2.1749766786222521e-02  -2.1548455774307980e-02  -2.1559649297612594e-02  -2.2499574990869461e-02  -1.8282374468693279e-02  -1.9650356225885336e-02  -1.8066886572077941e-02  -1.8074605349351264e-02  -1.7777507946955724e-02  -1.7352893244930313e-02  -2.6636654208182287e-02  -2.6646805531677510e-02  -2.7183665746628522e-02  -2.7188255640156624e-02  -2.3186137212453762e-02  -2.2868988910342319e-02  -2.3237609774560360e-02  -2.2929008846052555e-02  -2.6837401438264328e-02  -2.6825356063358886e-02  -2.7473353997657806e-02  -2.7490002233484127e-02  -2.3716946347171659e-02  -2.3693327502741467e-02  -1.7701067894727238e-02  -1.7763106221508503e-02  -1.7163640031774514e-02  -1.7141999352226052e-02  -2.2802274346863497e-02  -2.2796382083662210e-02  -1.7320729111879114e-02  -1.7304232513885503e-02  -2.2542588554658870e-02  -2.2577162920574791e-02  -2.1206688803696486e-02  -2.3175445250054199e-02  -2.1181314199447125e-02  -2.3171994544744123e-02  -2.1569841545305075e-02  -2.1582939234854666e-02  -2.1206756239641519e-02  -2.1188442247799422e-02  -2.0127514393149741e-02  -2.0209405187805663e-02  -2.1237294459492864e-02  -2.1185483865375405e-02  -2.3296615254750318e-02  -2.3304610458677519e-02  -2.3640479396526030e-02  -2.3649125182201389e-02  -2.0496880715096796e-02  -2.0535877345342648e-02  -2.3712714295293386e-02  -2.3699951362991037e-02  -2.0227761175000806e-02  -2.0216814634867873e-02  -2.5679484066014942e-02  -2.5689386241368625e-02  -2.1401646053539721e-02  -2.1422503051496566e-02  -2.0644169676102844e-02  -2.0631956902973366e-02  -1.5470337947409782e-02  -1.5477131112978725e-02  -2.5959295422598234e-02  -2.5978244709759769e-02  -2.0337688456949766e-02  -2.0282371119151266e-02  -1.5825000611100364e-02  -1.5820955954143442e-02  -1.5254853353444108e-02  -1.5247502523126136e-02  -1.4409113679542273e-02  -2.4202163641611533e-02  -2.4195095783368918e-02  -2.3604222701872606e-02  -2.3616071694622404e-02  -2.3871807194503901e-02  -2.3917749723043277e-02  -2.3323885755930286e-02  -2.3323731842351154e-02  -2.6909682424082426e-02  -2.6919378936248937e-02  -2.6975816054318563e-02  -2.6983205362835265e-02  -2.0429161196642245e-02  -2.0376331138706988e-02  -2.3102615484123422e-02  -2.3179290663471238e-02  -2.0378176966897820e-02  -2.0333739935446047e-02  -1.5107360761087991e-02  -1.4876622116188381e-02  -1.4869692472339702e-02  -8.6907978169428989e-03  -8.6887344869590478e-03  -8.5851722917456869e-03  -8.5846126450656018e-03  -1.3953567987050679e-02  -1.3950666830692285e-02  -2.5151003420979475e-02  -2.5136574896099648e-02  -2.5414420027928448e-02  -2.5415022543261463e-02  -2.5038417679553403e-02  -2.5053793666437691e-02  -2.7703455637683963e-02  -2.7685566914912793e-02  -2.4775962462713578e-02  -2.4767634940796375e-02  -2.7714662768671218e-02  -2.7719595270395407e-02  -1.9990966607629407e-02  -2.0004516672633969e-02  -1.6974777514289462e-02  -1.6975627041227678e-02  -1.8925801658748725e-02  -1.9093025971460179e-02  -1.9207989790701353e-02  -2.2367226181491787e-02  -2.2100951068719826e-02  -1.4130500381994423e-02  -1.4123129901123460e-02  -2.5741148608061381e-02  -2.5744579054599110e-02  -2.4152686172797828e-02  -2.4136068443150714e-02  -2.4663555670006089e-02  -2.4671804222834350e-02  -2.3925688122982458e-02  -2.3925268522578810e-02  -1.8633856376942953e-02  -1.8748839641184335e-02  -2.2879783524472147e-02  -2.2883425004286612e-02  -2.2997518900309821e-02  -2.3148206709111031e-02  -1.6120772032261057e-02  -1.6079406709669630e-02  -1.6068467089473251e-02  -2.6015095403151046e-02  -2.5998945709262096e-02  -1.6872960647151842e-02  -1.6817132325812677e-02  -1.5305147294129313e-02  -1.5305031276265282e-02  -2.0576824369237530e-02  -2.5180112722057189e-02  -2.5189729135682935e-02  -1.5167293654036894e-02  -1.5174574612708446e-02  -1.8456411704583443e-02  -2.4036114655324823e-02  -1.8432373348660026e-02  -2.4036996423590713e-02  -1.4200877390140886e-02  -1.4191331860538600e-02  -2.2820750531787073e-02  -2.2834930437151332e-02  -2.3139201328435759e-02  -2.3159442832091141e-02  -2.0038810354537157e-02  -2.0080736409936663e-02  -2.5690416231253399e-02  -2.5703236782532963e-02  -1.7870686070015612e-02  -2.3736107683213267e-02  -1.7952229191452434e-02  -2.3765005485591292e-02  -2.2509953687343803e-02  -2.2514880841251229e-02  -1.5838425353548607e-02  -1.5863814809311146e-02  -1.6069052476989032e-02  -1.6061988685957870e-02  -1.3325568288471527e-02  -1.3326992359368923e-02  -2.3390203247864626e-02  -2.3375910369959400e-02  -2.3893335672163129e-02  -2.3866460071413138e-02  -2.3808603889713204e-02  -2.3820870536487484e-02  -1.5224873149423357e-02  -1.5214568825499064e-02  -2.4819701032912596e-02  -2.4836343791493312e-02  -2.6782551619314091e-02  -2.6787245015224368e-02  -2.5138751738566039e-02  -2.5144159176040636e-02  -1.9769143059656800e-02  -1.9808194114472613e-02  -2.6124412378884521e-02  -2.6142612853650986e-02  -2.7026477492158130e-02  -2.7008240032807409e-02  -1.9220635083803429e-02  -1.9331112461502126e-02  -1.9618854555002483e-02  -1.9553602426635938e-02  -2.2718108626770244e-02  -2.2734322231496861e-02  -1.2960221799661527e-02  -1.2963114329000823e-02  -1.9369515589689818e-02  -1.9243934589983559e-02  -2.5205864809069757e-02  -2.4757963838092985e-02  -2.5175349311375116e-02  -2.4729223141507925e-02  -2.6883589359433396e-02  -2.6878712088913011e-02  -2.7725886665112949e-02  -2.7726985933249012e-02  -1.8009905425851076e-02  -1.8213614980869569e-02  -2.1845123310420721e-02  -2.1853932741617718e-02  -2.6319803648863504e-02  -2.6326782702762435e-02  -2.7857061418364339e-02  -2.7840846110709184e-02  -2.4175586443979116e-02  -2.4160658873095747e-02  -2.3907606158046747e-02  -2.3953736157000936e-02  -2.0032810550371639e-02  -1.5491684702599623e-02  -1.5494990710568014e-02  -2.0879139255327528e-02  -1.5844629358084384e-02  -1.5944514888650535e-02  -1.5961743556225552e-02  -1.4897662532110790e-02  -1.2504262310041597e-02  -1.2504013282482235e-02  -1.9101825434591997e-02  -1.8966510507535700e-02  -1.2797627129292926e-02  -1.2795112700292353e-02  -1.4201376948484683e-02  -1.5795927199544819e-02  -1.5809985371771803e-02  -1.9128574126655175e-02  -1.9147510924495945e-02  -1.4112443717390556e-02  -1.4107532197687012e-02  -2.3220423297832603e-02  -2.3184277467889019e-02  -2.3775132896345395e-02  -2.3778228628461559e-02  -2.6939063361434295e-02  -2.6921027885682403e-02  -2.3371901852238478e-02  -2.3382038846686458e-02  -2.3072079203525341e-02  -2.6259139095638238e-02  -2.6269831334276017e-02  -2.4718289231418045e-02  -2.4722097115645020e-02  -2.2928634278392309e-02  -1.8471441366356256e-02  -1.8320561781071738e-02  -2.5741021887431350e-02  -2.5753934398754813e-02  -1.8783222615514773e-02  -1.8966871311893549e-02  -1.4395233051308388e-02  -1.4396352956673446e-02  -1.8691356800618533e-02  -1.8584804472057268e-02  -1.4401895687160150e-02  -1.4431080472905273e-02  -1.8035327591876184e-02  -1.8526342171291257e-02  -2.3071353526570307e-02  -1.3974827092958272e-02  -2.1988698052274262e-02  -2.2004216822913428e-02  -2.1013430574803562e-02  -2.1008573551411322e-02  -2.2215247164972488e-02  -2.2220543603144634e-02  -2.2007237290671715e-02  -2.3571515143947386e-02  -2.2002397114545946e-02  -2.3546309140454559e-02  -2.6624961612309515e-02  -2.6641306198245680e-02  -2.5073592750365265e-02  -2.5061356874220408e-02  -2.3896033328226672e-02  -2.3901016229171426e-02  -2.2382448125839342e-02  -2.2354432775286037e-02  -2.5376231176851421e-02  -2.5403850652880540e-02  -2.6158498916628817e-02  -2.6154090725884916e-02  -2.3730087683760091e-02  -2.3741168906889685e-02  -2.0237078349161060e-02  -2.0224183812894477e-02  -2.1352408400139036e-02  -2.1342443054988156e-02  -2.1588452042602790e-02  -2.1577182970013549e-02  -2.5022816440116547e-02  -2.5028506840542201e-02  -1.8744310579017317e-02  -1.8696932859772943e-02  -1.8516988114178491e-02  -1.8328042888553959e-02  -2.4223165062649137e-02  -2.4259576255893069e-02  -2.3310303113259427e-02  -2.3319010038438989e-02  -1.3656155927212752e-02  -1.3660502161490697e-02  -2.1410091601436504e-02  -2.1439574575068968e-02  -2.1677932786289111e-02  -2.1588798564492858e-02  -2.3325187816356657e-02  -2.3343000975146883e-02  -1.8848383840138802e-02  -1.8950060851533078e-02  -2.0392210972738203e-02  -2.0373104228370999e-02  -2.4000701955525509e-02  -2.3984887473958376e-02  -2.4838922246787402e-02  -2.48234480