<?xml version="1.0"?>
<VTKFile type="UnstructuredGrid"  version="0.1"  >
<UnstructuredGrid>
<Piece  NumberOfPoints="1286" NumberOfCells="2474">
<Points>
<DataArray  type="Float64"  NumberOfComponents="3"  format="ascii">0 0 0  0 1 0  1 1 0  1 0 0  1.1 -0.1 0  -0.1 -0.1 0  1.1 1.1 0  -0.1 1.1 0  0.2461614777063324 0.4999458088621311 0  0.499679389771096 0.4999493906005684 0  0 0.9499999999997918 0  0 0.8999999999995836 0  0 0.8499999999996529 0  0 0.7999999999999998 0  0 0.7500000000003466 0  0 0.7000000000006934 0  0 0.6500000000010401 0  0 0.6000000000013869 0  0 0.5500000000017335 0  0 0.5000000000020587 0  0 0.4500000000018723 0  0 0.4000000000016644 0  0 0.3500000000014564 0  0 0.3000000000012483 0  0 0.2500000000010403 0  0 0.2000000000008322 0  0 0.1500000000006241 0  0 0.100000000000416 0  0 0.05000000000020799 0  0.04999999999989965 0 0  0.09999999999981467 0 0  0.1499999999997036 0 0  0.1999999999995579 0 0  0.2499999999994121 0 0  0.2999999999992664 0 0  0.3499999999991206 0 0  0.3999999999989749 0 0  0.4499999999988292 0 0  0.4999999999986943 0 0  0.5499999999988151 0 0  0.5999999999989468 0 0  0.6499999999990784 0 0  0.69999999999921 0 0  0.7499999999993417 0 0  0.7999999999994734 0 0  0.8499999999996051 0 0  0.8999999999997368 0 0  0.9499999999998684 0 0  1 0.04999999999989965 0  1 0.09999999999981467 0  1 0.1499999999997036 0  1 0.1999999999995579 0  1 0.2499999999994121 0  1 0.2999999999992664 0  1 0.3499999999991206 0  1 0.3999999999989749 0  1 0.4499999999988292 0  1 0.4999999999986943 0  1 0.5499999999988151 0  1 0.5999999999989468 0  1 0.6499999999990784 0  1 0.69999999999921 0  1 0.7499999999993417 0  1 0.7999999999994734 0  1 0.8499999999996051 0  1 0.8999999999997368 0  1 0.9499999999998684 0  0.9499999999997918 1 0  0.8999999999995836 1 0  0.8499999999996529 1 0  0.7999999999999998 1 0  0.7500000000003466 1 0  0.7000000000006934 1 0  0.6500000000010401 1 0  0.6000000000013869 1 0  0.5500000000017335 1 0  0.5000000000020587 1 0  0.4500000000018723 1 0  0.4000000000016644 1 0  0.3500000000014564 1 0  0.3000000000012483 1 0  0.2500000000010403 1 0  0.2000000000008322 1 0  0.1500000000006241 1 0  0.100000000000416 1 0  0.05000000000020799 1 0  -0.1 1.05000000000004 0  -0.1 1.000000000000079 0  -0.1 0.9500000000001624 0  -0.1 0.9000000000003032 0  -0.1 0.850000000000444 0  -0.1 0.8000000000005848 0  -0.1 0.7500000000007256 0  -0.1 0.7000000000008665 0  -0.1 0.6500000000010508 0  -0.1 0.6000000000012352 0  -0.1 0.5500000000014196 0  -0.1 0.500000000001539 0  -0.1 0.4500000000014195 0  -0.1 0.4000000000013 0  -0.1 0.3500000000011588 0  -0.1 0.3000000000010178 0  -0.1 0.2500000000008986 0  -0.1 0.2000000000007579 0  -0.1 0.1500000000006174 0  -0.1 0.1000000000005272 0  -0.1 0.05000000000040083 0  -0.1 2.671196597248127e-13 0  -0.1 -0.0499999999998666 0  -0.0500000000000906 -0.1 0  -1.730560139634463e-13 -0.1 0  0.04999999999975802 -0.1 0  0.09999999999961506 -0.1 0  0.1499999999994613 -0.1 0  0.199999999999302 -0.1 0  0.2499999999991446 -0.1 0  0.2999999999990088 -0.1 0  0.3499999999988296 -0.1 0  0.3999999999986936 -0.1 0  0.4499999999985143 -0.1 0  0.4999999999984002 -0.1 0  0.5499999999985247 -0.1 0  0.5999999999986493 -0.1 0  0.6499999999987955 -0.1 0  0.6999999999989417 -0.1 0  0.7499999999990659 -0.1 0  0.7999999999992116 -0.1 0  0.8499999999993573 -0.1 0  0.8999999999994526 -0.1 0  0.949999999999584 -0.1 0  0.9999999999997226 -0.1 0  1.049999999999861 -0.1 0  1.1 -0.0500000000000906 0  1.1 -1.730560139634463e-13 0  1.1 0.04999999999975802 0  1.1 0.09999999999961506 0  1.1 0.1499999999994613 0  1.1 0.199999999999302 0  1.1 0.2499999999991446 0  1.1 0.2999999999990088 0  1.1 0.3499999999988296 0  1.1 0.3999999999986936 0  1.1 0.4499999999985143 0  1.1 0.4999999999984002 0  1.1 0.5499999999985247 0  1.1 0.5999999999986493 0  1.1 0.6499999999987955 0  1.1 0.6999999999989417 0  1.1 0.7499999999990659 0  1.1 0.7999999999992116 0  1.1 0.8499999999993573 0  1.1 0.8999999999994526 0  1.1 0.949999999999584 0  1.1 0.9999999999997226 0  1.1 1.049999999999861 0  1.05000000000004 1.1 0  1.000000000000079 1.1 0  0.9500000000001624 1.1 0  0.9000000000003032 1.1 0  0.850000000000444 1.1 0  0.8000000000005848 1.1 0  0.7500000000007256 1.1 0  0.7000000000008665 1.1 0  0.6500000000010508 1.1 0  0.6000000000012352 1.1 0  0.5500000000014196 1.1 0  0.500000000001539 1.1 0  0.4500000000014195 1.1 0  0.4000000000013 1.1 0  0.3500000000011588 1.1 0  0.3000000000010178 1.1 0  0.2500000000008986 1.1 0  0.2000000000007579 1.1 0  0.1500000000006174 1.1 0  0.1000000000005272 1.1 0  0.05000000000040083 1.1 0  2.671196597248127e-13 1.1 0  -0.0499999999998666 1.1 0  0.2488749854673163 0.46956202423391 0  0.2562669043843895 0.4409644980928444 0  0.2646227206318085 0.4135678564302382 0  0.2755188956816988 0.3873233502661007 0  0.2893652535544712 0.3632619770532629 0  0.3060498089391622 0.3417180102933125 0  0.3237094191272191 0.3203224098471381 0  0.3453577753191146 0.3019391645850649 0  0.369521781925912 0.2882513913205067 0  0.3941046132627438 0.2755360998350639 0  0.42020542421514 0.2647569863064333 0  0.4476902803275449 0.255743975540778 0  0.4769366333908094 0.2496280564053032 0  0.5075845754982387 0.2472135586703955 0  0.537707472496753 0.2517063313996662 0  0.5659101738930254 0.2600270133456019 0  0.5930769953133257 0.2684321049513764 0  0.6186250215550828 0.2799990115595948 0  0.6428180969231031 0.2936628642408181 0  0.6649090250650705 0.310895285112087 0  0.684428318860516 0.3298970778325646 0  0.7017238359819777 0.3519658362917104 0  0.7143893320255981 0.3764208680514273 0  0.7264769152163718 0.4011057197971808 0  0.7379633930666806 0.4272119620174545 0  0.7460244350837623 0.4552436851637511 0  0.7527442581043666 0.484538075558348 0  0.7527613925271497 0.5154685882987643 0  0.746084068954937 0.5447384362836674 0  0.7380835808808812 0.5727251189447269 0  0.7266021392727999 0.5988113072562369 0  0.7144003567601162 0.6235581540415832 0  0.701538772903107 0.647964700535804 0  0.6841130378253575 0.6699208608973615 0  0.6643783899056479 0.6888656176931069 0  0.6424480599705742 0.7059099441431438 0  0.6183597088910777 0.7196416544004517 0  0.5928352376822451 0.7313101170497111 0  0.5656812164835469 0.7399135356841542 0  0.5375294837442701 0.748333213636447 0  0.5074800445212535 0.7528700452979343 0  0.4768877666376537 0.7504354624030484 0  0.4476952778619276 0.7441981603729606 0  0.4201912329708641 0.7350520595195794 0  0.3941751252210127 0.7243337925472566 0  0.3697684310526374 0.7116936131182542 0  0.3457472657732232 0.6982533795514474 0  0.3241975811886375 0.679790148262866 0  0.307005385292372 0.6582818353894051 0  0.2904566935416192 0.6365636413263729 0  0.2765301318703524 0.6124137769956779 0  0.2650012013757337 0.5863616947630965 0  0.2564463189691857 0.5589421813019105 0  0.2489259982733286 0.5303199310217487 0  0.5012797686201997 0.6151574721797123 0  0.507023766345895 0.378930766485266 0  0.6295299312530166 0.4985134835461198 0  0.3642250773870246 0.4999270608687437 0  0.4099732146093705 0.4226528134117519 0  0.4070989042673155 0.5772870488991961 0  0.5790123625804204 0.4056497368301454 0  0.5785865078873638 0.5943732456784063 0  0.437918963319862 0.6442912450699596 0  0.4859353914024394 0.6833949952927787 0  0.5454361494323308 0.6814157105847329 0  0.4329605390842877 0.3518843422887208 0  0.4864546449861434 0.3148600259798762 0  0.5475066297655768 0.3181742381010792 0  0.6508274203765301 0.5881337899056649 0  0.6512895842419416 0.4120376751016119 0  0.3448584896700649 0.5761684790820399 0  0.3439004120543725 0.4232753133896151 0  0.38182636711527 0.6393048288567024 0  0.3826880436275916 0.3599019602631818 0  0.5921986821393597 0.6519269839697388 0  0.5933023384650838 0.3472784543322241 0  0.6906636243148261 0.500041076363915 0  0.6907895665826768 0.5549530764686457 0  0.6906207968642987 0.445772670302985 0  0.3048301668012328 0.4538996314177134 0  0.2948967123469004 0.506072251043417 0  0.635995545352139 0.366785521846399 0  0.636470553968054 0.6338636801862589 0  0.3029378871083847 0.5565626957612142 0  0.4249961579744323 0.5132896390991546 0  0.4409532164735569 0.6935477521884255 0  0.4413100994056819 0.3067107790692949 0  0.3454655927128746 0.3791140301583245 0  0.3456168633187015 0.6216384003857534 0  0.5630732120513767 0.5249006907906139 0  0.521122576134741 0.4399999205958841 0  0.520124359546918 0.2871037754513143 0  0.5194562837762664 0.7125837189153253 0  0.4692000097470419 0.5728720526093681 0  0.4680294861193391 0.4452395271728254 0  0.3965679014767484 0.6705924361553353 0  0.3973026969874827 0.3299763465786515 0  0.6033396462197429 0.4570801894381827 0  0.6021156138208018 0.5414072268659561 0  0.5819993384343137 0.3141856185293692 0  0.5810814203554853 0.6853358005538102 0  0.3953985230777746 0.5311195543745053 0  0.3897403397285788 0.465197315167084 0  0.4474930474103559 0.417839750452254 0  0.711292267711962 0.5304977706583233 0  0.7123774857529492 0.4683690673732212 0  0.5432387149580149 0.6101518837612782 0  0.5447458127555657 0.3892123019251402 0  0.6932479951637961 0.5895423592444672 0  0.6931986583495955 0.410332011299916 0  0.4291511979323382 0.6092529617641249 0  0.3019726794104153 0.4174045643766507 0  0.4725706489943938 0.7217841583707911 0  0.4727489108579658 0.2782735119068045 0  0.4608831267999206 0.6683591104714145 0  0.4586833917908716 0.3319440638674654 0  0.6668029794012874 0.3748542837545324 0  0.6665086486917365 0.6250169674743037 0  0.6297524494824249 0.3335329849523884 0  0.6296610645392228 0.6662960699687061 0  0.2799179081223571 0.4711428698046648 0  0.3066272099257792 0.5871137646466664 0  0.7242955771496524 0.5000139353216746 0  0.5168612730039599 0.5647614423377103 0  0.2811643509409287 0.5362690103279811 0  0.3179395751953303 0.3905397859210344 0  0.4623045361263232 0.60569503959621 0  0.5672627829321861 0.2888856830438972 0  0.5658877959415313 0.710970773019339 0  0.3533993449005896 0.5368941721927954 0  0.32214578566604 0.5255207082630696 0  0.561508237536632 0.349953
[...]
<PointData  Scalars="state"> 
<DataArray  type="Float64"  Name="state"  format="ascii">0.0000000000000000e+00  0.0000000000000000e+00  0.0000000000000000e+00  0.0000000000000000e+00  0.0000000000000000e+00  0.0000000000000000e+00  0.0000000000000000e+00  0.0000000000000000e+00  -1.0909452911837380e-02  1.3917855299934720e+00  0.0000000000000000e+00  0.0000000000000000e+00  0.0000000000000000e+00  0.0000000000000000e+00  0.0000000000000000e+00  0.0000000000000000e+00  0.0000000000000000e+00  0.0000000000000000e+00  0.0000000000000000e+00  0.0000000000000000e+00  0.0000000000000000e+00  0.0000000000000000e+00  0.0000000000000000e+00  0.0000000000000000e+00  0.0000000000000000e+00  0.0000000000000000e+00  0.0000000000000000e+00  0.0000000000000000e+00  0.0000000000000000e+00  0.0000000000000000e+00  0.0000000000000000e+00  0.0000000000000000e+00  0.0000000000000000e+00  0.0000000000000000e+00  0.0000000000000000e+00  0.0000000000000000e+00  0.0000000000000000e+00  0.0000000000000000e+00  0.0000000000000000e+00  0.0000000000000000e+00  0.0000000000000000e+00  0.0000000000000000e+00  0.0000000000000000e+00  0.0000000000000000e+00  0.0000000000000000e+00  0.0000000000000000e+00  0.0000000000000000e+00  0.0000000000000000e+00  0.0000000000000000e+00  0.0000000000000000e+00  0.0000000000000000e+00  0.0000000000000000e+00  0.0000000000000000e+00  0.0000000000000000e+00  0.0000000000000000e+00  0.0000000000000000e+00  0.0000000000000000e+00  0.0000000000000000e+00  0.0000000000000000e+00  0.0000000000000000e+00  0.0000000000000000e+00  0.0000000000000000e+00  0.0000000000000000e+00  0.0000000000000000e+00  0.0000000000000000e+00  0.0000000000000000e+00  0.0000000000000000e+00  0.0000000000000000e+00  0.0000000000000000e+00  0.0000000000000000e+00  0.0000000000000000e+00  0.0000000000000000e+00  0.0000000000000000e+00  0.0000000000000000e+00  0.0000000000000000e+00  0.0000000000000000e+00  0.0000000000000000e+00  0.0000000000000000e+00  0.0000000000000000e+00  0.0000000000000000e+00  0.0000000000000000e+00  0.0000000000000000e+00  0.0000000000000000e+00  0.0000000000000000e+00  0.0000000000000000e+00  0.0000000000000000e+00  0.0000000000000000e+00  0.0000000000000000e+00  0.0000000000000000e+00  0.0000000000000000e+00  0.0000000000000000e+00  0.0000000000000000e+00  0.0000000000000000e+00  0.0000000000000000e+00  0.0000000000000000e+00  0.0000000000000000e+00  0.0000000000000000e+00  0.0000000000000000e+00  0.0000000000000000e+00  0.0000000000000000e+00  0.0000000000000000e+00  0.0000000000000000e+00  0.0000000000000000e+00  0.0000000000000000e+00  0.0000000000000000e+00  0.0000000000000000e+00  0.0000000000000000e+00  0.0000000000000000e+00  0.0000000000000000e+00  0.0000000000000000e+00  0.0000000000000000e+00  0.0000000000000000e+00  0.0000000000000000e+00  0.0000000000000000e+00  0.0000000000000000e+00  0.0000000000000000e+00  0.0000000000000000e+00  0.0000000000000000e+00  0.0000000000000000e+00  0.0000000000000000e+00  0.0000000000000000e+00  0.0000000000000000e+00  0.0000000000000000e+00  0.0000000000000000e+00  0.0000000000000000e+00  0.0000000000000000e+00  0.0000000000000000e+00  0.0000000000000000e+00  0.0000000000000000e+00  0.0000000000000000e+00  0.0000000000000000e+00  0.0000000000000000e+00  0.0000000000000000e+00  0.0000000000000000e+00  0.0000000000000000e+00  0.0000000000000000e+00  0.0000000000000000e+00  0.0000000000000000e+00  0.0000000000000000e+00  0.0000000000000000e+00  0.0000000000000000e+00  0.0000000000000000e+00  0.0000000000000000e+00  0.0000000000000000e+00  0.0000000000000000e+00  0.0000000000000000e+00  0.0000000000000000e+00  0.0000000000000000e+00  0.0000000000000000e+00  0.0000000000000000e+00  0.0000000000000000e+00  0.0000000000000000e+00  0.0000000000000000e+00  0.0000000000000000e+00  0.0000000000000000e+00  0.0000000000000000e+00  0.0000000000000000e+00  0.0000000000000000e+00  0.0000000000000000e+00  0.0000000000000000e+00  0.0000000000000000e+00  0.0000000000000000e+00  0.0000000000000000e+00  0.0000000000000000e+00  0.0000000000000000e+00  0.0000000000000000e+00  0.0000000000000000e+00  0.0000000000000000e+00  0.0000000000000000e+00  0.0000000000000000e+00  0.0000000000000000e+00  0.0000000000000000e+00  0.0000000000000000e+00  0.0000000000000000e+00  0.0000000000000000e+00  0.0000000000000000e+00  0.0000000000000000e+00  0.0000000000000000e+00  -8.3926225760825555e-03  -8.1579599185907167e-03  -4.4564237379946031e-03  -5.0028770207693534e-03  -5.5749630001632180e-03  -7.1441031404479351e-03  -7.8262028425033663e-04  -4.7473960727261681e-03  -7.4617876434003071e-03  -7.0852540084223106e-03  -7.5551344346640962e-03  -7.4548493303174188e-03  -9.7035601996062967e-03  -9.5136025348567591e-03  -8.9524656964741524e-03  -7.9344186107579914e-03  -5.6880278465172695e-03  -7.2540872068266636e-03  -3.3132393806044390e-03  -6.1624358009395993e-03  -7.3722606741984144e-03  -2.6860440572608162e-03  -6.3470053791564634e-03  -6.8218871963065617e-03  -6.6248727042038050e-03  -9.4043444481138345e-03  -8.5033662620216215e-03  -8.4474368306597693e-03  -9.4865673380066257e-03  -6.6965339403054326e-03  -6.9633399505571632e-03  -6.3749289203663692e-03  -2.8369149855898188e-03  -7.5612097254713333e-03  -6.2790619241584796e-03  -3.3358627896862788e-03  -7.3034788304118699e-03  -5.7360016343497543e-03  -8.0622692624627932e-03  -9.1100705211280327e-03  -9.7090673129650775e-03  -9.9160350777001676e-03  -7.4892363461704116e-03  -7.5124251177216793e-03  -7.1089169543440238e-03  -7.7512306567509457e-03  -4.9866337203398579e-03  -1.1795655741776683e-03  -7.2898468430825690e-03  -5.8308770555067398e-03  -2.4446767730753366e-03  -7.4608354940268297e-03  -8.1471049814687210e-03  -7.9531333818519730e-03  9.3859488728260199e-01  8.9802239986812737e-01  8.6124531941791937e-01  8.4769454179951187e-01  9.3007385735918757e-01  9.1279173670826463e-01  8.8319381870565727e-01  8.8432206344250808e-01  5.4269182761977908e-01  1.9426230585828250e-01  1.6046882548799188e-01  4.6324449224282999e-01  1.7788833458493958e-01  1.5557482313394816e-01  2.4631835725830256e-01  2.4277283174022013e-01  2.9071234647226685e-01  2.8384731320404011e-01  1.8432659256911660e-01  1.8525411663493455e-01  2.2160108003775503e-01  2.1418356398640184e-01  1.4246348846023213e-01  1.1344284331619148e-01  1.1444933649747534e-01  1.1563403930223290e-01  8.4457183200258940e-02  1.2716648968006047e-01  1.2055988755287710e-01  9.0941816884392263e-02  1.1930255956691451e+00  9.6654826080915551e-02  9.6568968581784084e-02  1.1974501231266191e-01  1.1537537479634200e-01  1.2379565588692267e+00  1.2541671923155480e+00  6.5113130690990034e-02  6.6001374422398201e-02  1.1707490957386386e+00  1.2538829916839209e+00  8.8746319569646362e-02  9.9009545347907180e-02  9.4891659902532066e-01  9.5793489706906165e-01  8.4831781593494568e-02  8.6539766067886742e-02  9.6940149233642781e-01  9.2545907632329782e-01  1.0440226149858856e+00  6.9177903742203520e-02  6.4917224452401667e-02  9.2849463870587745e-01  9.2557444486111162e-01  6.9406201782302959e-02  6.9931412835909187e-02  8.6564104833595379e-01  6.7471751599615770e-02  5.8376007222856269e-02  5.8410251222783809e-02  2.9893531355569430e-01  3.1087501399301004e-01  7.9204124829930361e-02  7.9532004042788595e-02  7.7498974126922693e-02  7.6919469786673814e-02  6.3796015833199715e-02  6.8003522954361906e-02  5.4165650565518440e-02  1.2412396205719012e+00  5.6527703471341444e-02  6.5794616362848765e-02  9.5656232945690745e-01  6.1207489620214842e-02  6.1629886381598054e-02  6.9060362328521352e-01  2.4217539877853478e-01  4.5695835264141893e-01  4.6237462265070728e-01  6.6923162426861638e-01  6.8651767609811942e-01  6.5752617374488320e-01  6.4220443744908307e-01  6.4628557548409349e-01  6.7400640729862593e-01  6.7191990340385377e-01  7.3255316572033757e-01  4.7869279840351864e-01  7.1017374196878411e-02  6.5285676007805910e-02  6.5561947640237428e-02  7.0147875549388783e-01  5.7200841513132294e-01  6.2642433830220778e-02  6.3076937027219254e-02  1.2231556013883640e+00  5.8331096472756616e-01  5.8155895937434798e-01  8.3964876137901545e-01  5.8781041932857894e-02  5.8877025439094829e-02  3.3374511119454570e-01  6.8198320618546221e-02  6.5058968942393172e-02  5.5848719585939809e-02  5.5518353616899205e-02  3.9429531961494235e-01  1.9687502945101298e-01  1.9622660052930915e-01  4.7996211335282070e-02  5.4976138892403187e-02  4.9885183392379073e-02  4.9324215694349458e-02  5.5167697751978544e-02  5.5439260468947080e-02  5.7247102723804198e-02  5.8418049200425912e-02  3.8696739125998175e-01  2.3157809214484149e-01  2.2601587981775031e-01  1.0190363705339507e+00  3.5844054529710362e-01  3.5087848957740531e-01  2.1470498908693497e-01  1.1549549575046705e+00  5.9551399896366919e-01  6.0131376975261763e-01  8.8867428791757497e-01  5.8238878016566087e-01  5.9017891281021473e-01  5.1223734722725039e-02  5.1494769614162071e-02  5.0003977182203237e-02  4.5260292624406756e-02  4.5811124322194523e-02  2.2263427650422610e-01  1.1077204988412728e+00  1.5956019567482277e-01  1.8858563933679975e-01  1.0059859957738278e-01  1.0253767832750595e-01  5.8962745483579833e-02  6.8363203411739981e-01  5.0619812115944539e-02  4.9997979421003869e-02  1.4810597730214994e-01  1.5132389555022924e-01  1.0860844923071573e+00  1.0216611269857683e+00  4.3493141485302957e-02  4.3547507320401607e-02  6.7754840568210273e-01  1.0953616302244240e+00  1.1298281330087221e+00  9.2000026804784168e-02  9.1803172594610308e-02  4.6098588382835098e-01  4.3346366577183666e-02  1.2217284514404667e-01  7.5072660790850532e-01  7.5438742919720292e-01  5.9096180574707773e-02  1.3011637498321929e+00  4.7329274466131083e-02  4.7827962448104111e-02  2.1474264524660477e-01  2.1301674998876044e-01  9.3403448162379971e-02  9.3474698005698839e-02  1.0696090260053641e+00  2.3762512323457330e-01  2.3695968210364127e-01  8.1523464070898499e-01  4.5442337152468093e-02  4.5903138981259736e-02  5.1218350060516081e-02  5.1623217842074090e-02  4.8297770300743254e-02  4.8400657904257058e-02  7.9803951677880847e-01  8.7902030724010949e-01  1.9582647580136214e-01  2.0160021827407129e-01  5.1873403193043309e-02  1.0777477775926609e+00  8.0516782929087050e-01  8.9062253374966116e-01  2.3398882003896049e-01  7.9629039566268922e-01  8.0252011735728923e-01  1.2964279963360767e+00  3.0101397265921104e-01  2.7797727702125158e-01  5.0722982487132133e-02  5.1506500888422527e-02  5.5045889736863765e-02  -2.6731079455313316e-02  -2.6767496833192472e-02  -2.6766963721629834e-02  -2.6743261086563865e-02  -2.3929365383259286e-02  -2.3899837777136859e-02  -2.4663442337561056e-02  -2.4623257561346163e-02  -2.4804267801131416e-02  -2.4851442102768306e-02  -2.5116235990938263e-02  -2.5156258988910812e-02  -2.2110169795186659e-02  -2.2067381429787924e-02  -2.1926517540230471e-02  -2.1934875201504823e-02  -2.6060415153473172e-02  -2.6097580805005058e-02  -2.5682126608115793e-02  -2.5666801523804746e-02  -2.4978125395202267e-02  -2.5026822511066454e-02  -2.4790348967715928e-02  -2.4839870078476805e-02  -2.2713638266823048e-02  -2.2721120552917945e-02  -2.2685576739813262e-02  -2.3145274390816449e-02  -2.2621669990491471e-02  -2.3086436742154215e-02  -2.3286969901241565e-02  -2.3330324101128463e-02  -2.1946546447252351e-02  -1.8991455819551386e-02  -2.1928770877561465e-02  -1.8981297165853783e-02  -2.3270920964334203e-02  -2.3329012455375817e-02  -1.8477353620267110e-02  -1.8459576477633501e-02  -2.2907129650745810e-02  -2.2882893742216040e-02  -2.1409344427257525e-02  -2.1374391476485000e-02  -2.2117633207796986e-02  -2.1765492907919921e-02  -2.1789896901819632e-02  -2.2227837839606888e-02  -2.2297548728910908e-02  -2.1456982916825323e-02  -2.1446273871228532e-02  -2.1253484741426416e-02  -2.1218086206206223e-02  -2.2200002082933292e-02  -1.8046683954451363e-02  -1.9416936799758186e-02  -1.7799022632874993e-02  -1.7822419126886598e-02  -1.7398624774095699e-02  -1.6981908609718873e-02  -2.6182328164309675e-02  -2.6200135696720583e-02  -2.6848035925797369e-02  -2.6892867950734051e-02  -2.2709463485613691e-02  -2.2450380494887793e-02  -2.2758888169832858e-02  -2.2505364163538311e-02  -2.6500951044007903e-02  -2.6537573900109766e-02  -2.7037678219446703e-02  -2.7071300817482769e-02  -2.3114480350909471e-02  -2.3074030746623207e-02  -1.7509933217635144e-02  -1.7587087764839440e-02  -1.6856902551941971e-02  -1.6844042951320595e-02  -2.2148229393540796e-02  -2.2063210550031086e-02  -1.7094527898655159e-02  -1.7116414648217247e-02  -2.2064542006716172e-02  -2.2015521472020849e-02  -2.0852118911088811e-02  -2.2840234806117479e-02  -2.0878494094288640e-02  -2.2865630758001132e-02  -2.1292164620055738e-02  -2.1315592374271622e-02  -2.0816451103488568e-02  -2.0739210960270069e-02  -1.9460574278672871e-02  -1.9473492369483099e-02  -2.0597080722811027e-02  -2.0569169853611350e-02  -2.3032545115655813e-02  -2.3046928652389439e-02  -2.3468279049093502e-02  -2.3442149115444195e-02  -1.9970967701379988e-02  -2.0037516871279783e-02  -2.3322325536031835e-02  -2.3276796391907949e-02  -1.9667228798232139e-02  -1.9720486690737098e-02  -2.5234576978673238e-02  -2.5275399503387003e-02  -2.0890752829965990e-02  -2.0957731681136418e-02  -2.0367901116494884e-02  -2.0294396044478778e-02  -1.5366279162197840e-02  -1.5387504280136128e-02  -2.5406205688190259e-02  -2.5420036080666536e-02  -1.9542693057847473e-02  -1.9622601997469066e-02  -1.5574425145378393e-02  -1.5597539170165403e-02  -1.5131429808226611e-02  -1.5122883228281618e-02  -1.4229202078831400e-02  -2.3760011191480350e-02  -2.3811313451460921e-02  -2.3357087633063739e-02  -2.3373855002704145e-02  -2.3524830707228214e-02  -2.3595996550251377e-02  -2.3130357309378558e-02  -2.3159265944758561e-02  -2.6527394168095006e-02  -2.6569535081386243e-02  -2.6442756790217067e-02  -2.6479990343943868e-02  -1.9892365271236528e-02  -1.9939706657422136e-02  -2.2571454494043679e-02  -2.2632669834801986e-02  -1.9796954041310235e-02  -1.9730427865331825e-02  -1.4782028215578584e-02  -1.4770161884392386e-02  -1.4783359623388557e-02  -8.6400172893980852e-03  -8.6368274372601115e-03  -8.5513115518971554e-03  -8.5441418879256738e-03  -1.3833876679872412e-02  -1.3827536966750676e-02  -2.4683931075516065e-02  -2.4729887820621028e-02  -2.4821294572514672e-02  -2.4872411885530552e-02  -2.4696185344287684e-02  -2.4724807729801474e-02  -2.7236641916690452e-02  -2.7208148811538754e-02  -2.4532870722816309e-02  -2.4493823224147230e-02  -2.7399028450723416e-02  -2.7356373418205630e-02  -1.9199602419120654e-02  -1.9290032461101229e-02  -1.6703452836143044e-02  -1.6728219166848090e-02  -1.8559282944195683e-02  -1.8620012031561509e-02  -1.9059103822126354e-02  -2.2055379766116125e-02  -2.1811879472322757e-02  -1.3994004278006936e-02  -1.3983412224274967e-02  -2.5484133278372272e-02  -2.5522236870748689e-02  -2.3857171410664436e-02  -2.3888665032527581e-02  -2.4082414360626952e-02  -2.4077207068595927e-02  -2.3535096063821776e-02  -2.3526383605931882e-02  -1.7936130502480871e-02  -1.7960759744095080e-02  -2.2521291259271593e-02  -2.2475584187658496e-02  -2.2445151514096852e-02  -2.2593394536139826e-02  -1.5909209205069216e-02  -1.5920729701465516e-02  -1.5937639791116173e-02  -2.5694306167423360e-02  -2.5669858825145487e-02  -1.6754553809208747e-02  -1.6685071132331825e-02  -1.5146015926703451e-02  -1.5150730519397465e-02  -2.0061439881951328e-02  -2.4836633710076293e-02  -2.4854243670015444e-02  -1.5071312413269436e-02  -1.5057556532382235e-02  -1.7865401942789294e-02  -2.3386834664875147e-02  -1.7980606275156987e-02  -2.3446908257327703e-02  -1.4010272524983509e-02  -1.4028527552989480e-02  -2.2433780272821106e-02  -2.2499157295648289e-02  -2.2685941843207231e-02  -2.2752554967749243e-02  -1.9757962341373558e-02  -1.9834692924777065e-02  -2.5463181304534795e-02  -2.5431439865196005e-02  -1.7519469789179339e-02  -2.3279713938724488e-02  -1.7589868234359200e-02  -2.3336781625283243e-02  -2.2232996928143435e-02  -2.2259450979216774e-02  -1.5706430314808690e-02  -1.5713849237409837e-02  -1.5890035347180670e-02  -1.5873595120867168e-02  -1.3250151060086311e-02  -1.3263011515086937e-02  -2.3001792768049617e-02  -2.2945944740589107e-02  -2.3431409043710449e-02  -2.3376242077946852e-02  -2.3433197079518985e-02  -2.3469032601820074e-02  -1.5030337210839621e-02  -1.5025286496382143e-02  -2.4356992984733809e-02  -2.4405462267650491e-02  -2.6404990390114534e-02  -2.6453801423332798e-02  -2.4744954583685988e-02  -2.4697090968459807e-02  -1.9166972571649423e-02  -1.9253911466104976e-02  -2.5721197645130336e-02  -2.5761567191033587e-02  -2.6559009593545003e-02  -2.6515626347822594e-02  -1.8509921876921003e-02  -1.8583485838076300e-02  -1.8643519515189010e-02  -1.8734576243837248e-02  -2.2437630225784728e-02  -2.2403876327774651e-02  -1.2883758175455820e-02  -1.2888489122923832e-02  -1.8146616480068999e-02  -1.8192066840992810e-02  -2.4606035386660313e-02  -2.4160174672819241e-02  -2.4588487905272374e-02  -2.4137729922807719e-02  -2.6488924759092466e-02  -2.6533629340999853e-02  -2.7433977687760347e-02  -2.7393070028057517e-02  -1.7490922154423535e-02  -1.7544805567569165e-02  -2.1406271713121219e-02  -2.1426700696819637e-02  -2.5752426079866046e-02  -2.5783728014273328e-02  -2.7431776997816602e-02  -2.7402612198160065e-02  -2.3605549301646347e-02  -2.3585470738628843e-02  -2.3470050210090396e-02  -2.3517007403546852e-02  -1.9584210269235604e-02  -1.5301999932499932e-02  -1.5320584948537670e-02  -2.0404814557367527e-02  -1.5606511736643432e-02  -1.5700911100050351e-02  -1.5799096907249722e-02  -1.4762840683093702e-02  -1.2446975930371099e-02  -1.2455705601701674e-02  -1.8546479501825430e-02  -1.8405942184194786e-02  -1.2722428373937746e-02  -1.2717911744802206e-02  -1.3948411849843327e-02  -1.5695349956521498e-02  -1.5721271919907378e-02  -1.8950884825162669e-02  -1.9037630424573449e-02  -1.4007378484322085e-02  -1.3999081910080697e-02  -2.2729658353470805e-02  -2.2770189393786725e-02  -2.3342918403568339e-02  -2.3400457071988331e-02  -2.6416577457416122e-02  -2.6394109665023265e-02  -2.2733730868974095e-02  -2.2807561459046732e-02  -2.2515267434160977e-02  -2.5922993912034020e-02  -2.5879208820238715e-02  -2.4310981067010774e-02  -2.4359372598542497e-02  -2.2621413560749412e-02  -1.7530382724856113e-02  -1.7576308808278082e-02  -2.5254166210310503e-02  -2.5274295972945518e-02  -1.8545613341491140e-02  -1.8593719793148524e-02  -1.4224354294180255e-02  -1.4242304660663400e-02  -1.8277212218897079e-02  -1.8283193087226476e-02  -1.4297760378910758e-02  -1.4315213380020814e-02  -1.7399100119008550e-02  -1.7659179319362804e-02  -2.2500582427593393e-02  -1.3731921994932846e-02  -2.1593915108715844e-02  -2.1667314046069357e-02  -2.0664832402603237e-02  -2.0700411237744003e-02  -2.1843279113865136e-02  -2.1880835555032514e-02  -2.1425300135185187e-02  -2.2980946365039438e-02  -2.1439275898578514e-02  -2.2966001727939053e-02  -2.6202455960739814e-02  -2.6238196884290913e-02  -2.4785751358750555e-02  -2.4767295858011722e-02  -2.3271484686666764e-02  -2.3201523484446547e-02  -2.1958540229021224e-02  -2.1996136881973972e-02  -2.4943960328837077e-02  -2.4988356528606918e-02  -2.5861678173035869e-02  -2.5819469862509242e-02  -2.3271674218403371e-02  -2.3219184316811171e-02  -2.0061962448429303e-02  -2.0081841695981401e-02  -2.1207685577543763e-02  -2.1174952362935397e-02  -2.1385901843355894e-02  -2.1371271875694368e-02  -2.4830991070786415e-02  -2.4800344288070750e-02  -1.8717964323698801e-02  -1.8730156062706317e-02  -1.7794950226780040e-02  -1.7515681968371926e-02  -2.3937455168008007e-02  -2.4002188077929313e-02  -2.2969304833730594e-02  -2.2924804660429014e-02  -1.3506333134580469e-02  -1.3488967199714775e-02  -2.1195705284589157e-02  -2.1247406025876613e-02  -2.1384121833438453e-02  -2.1318636602865509e-02  -2.3063408126901677e-02  -2.3031258415984732e-02  -1.8497321940625488e-02  -1.8650556772456636e-02  -2.0147681683206065e-02  -2.0172244504737934e-02  -2.3543410758080321e-02  -2.3486110950295461e-02  -2.4560040611348456e-02  -2.45909065