<?xml version="1.0"?>
<VTKFile type="UnstructuredGrid"  version="0.1"  >
<UnstructuredGrid>
<Piece  NumberOfPoints="1297" NumberOfCells="2496">
<Points>
<DataArray  type="Float64"  NumberOfComponents="3"  format="ascii">0 0 0  0 1 0  1 1 0  1 0 0  1.1 -0.1 0  -0.1 -0.1 0  1.1 1.1 0  -0.1 1.1 0  0.3091749172494674 0.6578544497033726 0  0.3097573014786726 0.3426456266237182 0  0.6920199917726662 0.3416630811222938 0  0.6920840751678308 0.658677716502999 0  0.5005548773815909 0.5001839466768047 0  0 0.9499999999997918 0  0 0.8999999999995836 0  0 0.8499999999996529 0  0 0.7999999999999998 0  0 0.7500000000003466 0  0 0.7000000000006934 0  0 0.6500000000010401 0  0 0.6000000000013869 0  0 0.5500000000017335 0  0 0.5000000000020587 0  0 0.4500000000018723 0  0 0.4000000000016644 0  0 0.3500000000014564 0  0 0.3000000000012483 0  0 0.2500000000010403 0  0 0.2000000000008322 0  0 0.1500000000006241 0  0 0.100000000000416 0  0 0.05000000000020799 0  0.04999999999989965 0 0  0.09999999999981467 0 0  0.1499999999997036 0 0  0.1999999999995579 0 0  0.2499999999994121 0 0  0.2999999999992664 0 0  0.3499999999991206 0 0  0.3999999999989749 0 0  0.4499999999988292 0 0  0.4999999999986943 0 0  0.5499999999988151 0 0  0.5999999999989468 0 0  0.6499999999990784 0 0  0.69999999999921 0 0  0.7499999999993417 0 0  0.7999999999994734 0 0  0.8499999999996051 0 0  0.8999999999997368 0 0  0.9499999999998684 0 0  1 0.04999999999989965 0  1 0.09999999999981467 0  1 0.1499999999997036 0  1 0.1999999999995579 0  1 0.2499999999994121 0  1 0.2999999999992664 0  1 0.3499999999991206 0  1 0.3999999999989749 0  1 0.4499999999988292 0  1 0.4999999999986943 0  1 0.5499999999988151 0  1 0.5999999999989468 0  1 0.6499999999990784 0  1 0.69999999999921 0  1 0.7499999999993417 0  1 0.7999999999994734 0  1 0.8499999999996051 0  1 0.8999999999997368 0  1 0.9499999999998684 0  0.9499999999997918 1 0  0.8999999999995836 1 0  0.8499999999996529 1 0  0.7999999999999998 1 0  0.7500000000003466 1 0  0.7000000000006934 1 0  0.6500000000010401 1 0  0.6000000000013869 1 0  0.5500000000017335 1 0  0.5000000000020587 1 0  0.4500000000018723 1 0  0.4000000000016644 1 0  0.3500000000014564 1 0  0.3000000000012483 1 0  0.2500000000010403 1 0  0.2000000000008322 1 0  0.1500000000006241 1 0  0.100000000000416 1 0  0.05000000000020799 1 0  -0.1 1.05000000000004 0  -0.1 1.000000000000079 0  -0.1 0.9500000000001624 0  -0.1 0.9000000000003032 0  -0.1 0.850000000000444 0  -0.1 0.8000000000005848 0  -0.1 0.7500000000007256 0  -0.1 0.7000000000008665 0  -0.1 0.6500000000010508 0  -0.1 0.6000000000012352 0  -0.1 0.5500000000014196 0  -0.1 0.500000000001539 0  -0.1 0.4500000000014195 0  -0.1 0.4000000000013 0  -0.1 0.3500000000011588 0  -0.1 0.3000000000010178 0  -0.1 0.2500000000008986 0  -0.1 0.2000000000007579 0  -0.1 0.1500000000006174 0  -0.1 0.1000000000005272 0  -0.1 0.05000000000040083 0  -0.1 2.671196597248127e-13 0  -0.1 -0.0499999999998666 0  -0.0500000000000906 -0.1 0  -1.730560139634463e-13 -0.1 0  0.04999999999975802 -0.1 0  0.09999999999961506 -0.1 0  0.1499999999994613 -0.1 0  0.199999999999302 -0.1 0  0.2499999999991446 -0.1 0  0.2999999999990088 -0.1 0  0.3499999999988296 -0.1 0  0.3999999999986936 -0.1 0  0.4499999999985143 -0.1 0  0.4999999999984002 -0.1 0  0.5499999999985247 -0.1 0  0.5999999999986493 -0.1 0  0.6499999999987955 -0.1 0  0.6999999999989417 -0.1 0  0.7499999999990659 -0.1 0  0.7999999999992116 -0.1 0  0.8499999999993573 -0.1 0  0.8999999999994526 -0.1 0  0.949999999999584 -0.1 0  0.9999999999997226 -0.1 0  1.049999999999861 -0.1 0  1.1 -0.0500000000000906 0  1.1 -1.730560139634463e-13 0  1.1 0.04999999999975802 0  1.1 0.09999999999961506 0  1.1 0.1499999999994613 0  1.1 0.199999999999302 0  1.1 0.2499999999991446 0  1.1 0.2999999999990088 0  1.1 0.3499999999988296 0  1.1 0.3999999999986936 0  1.1 0.4499999999985143 0  1.1 0.4999999999984002 0  1.1 0.5499999999985247 0  1.1 0.5999999999986493 0  1.1 0.6499999999987955 0  1.1 0.6999999999989417 0  1.1 0.7499999999990659 0  1.1 0.7999999999992116 0  1.1 0.8499999999993573 0  1.1 0.8999999999994526 0  1.1 0.949999999999584 0  1.1 0.9999999999997226 0  1.1 1.049999999999861 0  1.05000000000004 1.1 0  1.000000000000079 1.1 0  0.9500000000001624 1.1 0  0.9000000000003032 1.1 0  0.850000000000444 1.1 0  0.8000000000005848 1.1 0  0.7500000000007256 1.1 0  0.7000000000008665 1.1 0  0.6500000000010508 1.1 0  0.6000000000012352 1.1 0  0.5500000000014196 1.1 0  0.500000000001539 1.1 0  0.4500000000014195 1.1 0  0.4000000000013 1.1 0  0.3500000000011588 1.1 0  0.3000000000010178 1.1 0  0.2500000000008986 1.1 0  0.2000000000007579 1.1 0  0.1500000000006174 1.1 0  0.1000000000005272 1.1 0  0.05000000000040083 1.1 0  2.671196597248127e-13 1.1 0  -0.0499999999998666 1.1 0  0.299665364203223 0.6455455033481257 0  0.2890611368677655 0.6294518319420567 0  0.2791217055121271 0.6111198798728886 0  0.2704003882518765 0.5908831719942196 0  0.2633562458206415 0.5693214610376538 0  0.2581951390428461 0.5467385240422887 0  0.2550604574333321 0.5235019339079943 0  0.2540593237957999 0.500031830684037 0  0.2551850661456116 0.4764731215903399 0  0.2584338914467129 0.4532376291270372 0  0.2637184692115313 0.4307147135973506 0  0.2708769151497978 0.4092396091899701 0  0.279678689887894 0.3891252188066195 0  0.2896936730818654 0.370841476442119 0  0.3003296143922432 0.3548052687222876 0  0.3199985680504371 0.331117811982079 0  0.3335090209586756 0.3180208232529241 0  0.3494223114373695 0.3049989871090653 0  0.3673200884332682 0.2928220796726496 0  0.3869016624086035 0.2819467344100349 0  0.4078766101959735 0.2726937072065321 0  0.4299823569056859 0.2652777327915063 0  0.4529009318578054 0.2598458071748255 0  0.4764111124211403 0.256491354689366 0  0.5001927814517353 0.2552797341588708 0  0.5240127594637105 0.2562274453600427 0  0.5475973723843155 0.2593222574508287 0  0.5706393475489301 0.2645125137437153 0  0.5928724163490261 0.2717291249229458 0  0.6140106935402089 0.2808224696850339 0  0.6337786988949013 0.2915955186389464 0  0.651867512073665 0.3037458115098811 0  0.6679797767033098 0.3168217547555933 0  0.6816174279820049 0.3299788799236138 0  0.70163040755898 0.3540653519824927 0  0.712223644359667 0.3701149919111436 0  0.7222678531830919 0.3885932319855158 0  0.7310622253914394 0.408953154209299 0  0.7381543410403164 0.4306102747140594 0  0.7433413745898266 0.4532125975235343 0  0.746508836388777 0.4764598638196628 0  0.7475844263011496 0.5000447676015117 0  0.7465359368893048 0.523648374263028 0  0.7433842807077174 0.5470003870495468 0  0.738217438732838 0.5696106947221081 0  0.7311255626287629 0.5913174419904639 0  0.7223716052116949 0.6116422998917267 0  0.7123310028224161 0.6301499986944702 0  0.7017312474288341 0.646225240842123 0  0.6816654342446313 0.6703797196150961 0  0.6679781518031224 0.6835829072208469 0  0.6518898314643879 0.6966503515211848 0  0.6338275835030764 0.7087964604608523 0  0.6140954248845087 0.7195700152570793 0  0.5929721673431568 0.7286799564334783 0  0.5707237998349847 0.7359373314713684 0  0.5476835035795656 0.741166719034234 0  0.524095437073035 0.7442992495692736 0  0.5002533346660469 0.7452873267767635 0  0.4764462827889857 0.7441189583931653 0  0.452938579558996 0.7408140164847788 0  0.4299691901248016 0.7354245870058833 0  0.4077928170519716 0.7280425918700457 0  0.3867664352675127 0.7188312882074174 0  0.3670806157792194 0.7079476366824486 0  0.3490561468985632 0.6957177877104944 0  0.3330502021863848 0.6826354126247988 0  0.319465477871848 0.6694604116528104 0  0.3787847140433261 0.3136864761609298 0  0.2852389057490896 0.4419032673320695 0  0.3786353401838831 0.686943515385896 0  0.2849601968063392 0.5582050110326864 0  0.7132667077486777 0.5804303036683987 0  0.601878016327092 0.6971994524771963 0  0.6214357756337872 0.3119233363006336 0  0.7180433058743653 0.4410670191168525 0  0.7224152377696156 0.5112825551639818 0  0.5573529415633293 0.290025194006223 0  0.4436730638258495 0.2929827249031322 0  0.4423343594269046 0.7078811665314442 0  0.5351571507958245 0.7125801294924453 0  0.2798431636224984 0.4882767717423968 0  0.2950561115102437 0.3983206556745114 0  0.4888769003356477 0.2901730519120998 0  0.299786454930422 0.6005305971661242 0  0.7008152783363069 0.395949591523977 0  0.4886919318789019 0.7142282998926689 0  0.6417728155731101 0.6786204302401168 0  0.3414466821639769 0.3352096757124578 0  0.6601969214492589 0.3357202739570017 0  0.3415483476026666 0.6677402793480618 0  0.6967510158467922 0.623884771929485 0  0.3109708390894163 0.3598912044223949 0  0.3121005247504166 0.6396792241900511 0  0.6760882828609615 0.6588850747356426 0  0.6911900631190941 0.3588343239399638 0  0.3594022433714917 0.6775218359359804 0  0.3694006555018965 0.6589297134968785 0  0.389549378001833 0.6656178971831914 0  0.3788014796023939 0.6384586593951415 0  0.4005393274663598 0.643478215827973 0  0.3880954344497907 0.6144428933990327 0  0.4148012798916631 0.6184810536705533 0  0.3992553917960109 0.5846239820586048 0  0.36218691170458 0.6093042390193383 0  0.4323435222774135 0.5870277727081766 0  0.4128066641002649 0.549104652212017 0  0.3737982603544309 0.5532078678778722 0  0.390086320379874 0.5144872999859422 0  0.352597559717047 0.516218187747727 0  0.3657065422593098 0.4820104217598459 0  0.404985453350087 0.4762788495653755 0  0.3845900758686406 0.4438209120129016 0  0.4198759747535359 0.4370620885884563 0  0.4004967077220929 0.4062888001070468 0  0.4324573454723388 0.3918101455696619 0  0.3676718354892921 0.4102514334512338 0  0.4091183618954006 0.3714205767592392 0  0.4411100419647448 0.6231177996298737 0  0.4663571121818935 0.5968440588139401 0  0.4843628565152889 0.6258841035305336 0  0.5026344345159681 0.5991290205842946 0  0.520002417406799 0.6261234439902376 0  0.5380500320631277 0.5990486785967889 0  0.555034738220765 0.6253127218256724 0  0.5728187552052654 0.5985183000121742 0  0.5900087058207774 0.6260899525530201 0  0.6069305188696842 0.5902994887198085 0  0.5916947124380415 0.556
[...]
<PointData  Scalars="adjoint"> 
<DataArray  type="Float64"  Name="adjoint"  format="ascii">0.0000000000000000e+00  0.0000000000000000e+00  0.0000000000000000e+00  0.0000000000000000e+00  0.0000000000000000e+00  0.0000000000000000e+00  0.0000000000000000e+00  0.0000000000000000e+00  4.3536746847940531e-05  4.3537504957897592e-05  4.3622866306488856e-05  4.3624328441167066e-05  5.0248584209245647e-05  0.0000000000000000e+00  0.0000000000000000e+00  0.0000000000000000e+00  0.0000000000000000e+00  0.0000000000000000e+00  0.0000000000000000e+00  0.0000000000000000e+00  0.0000000000000000e+00  0.0000000000000000e+00  0.0000000000000000e+00  0.0000000000000000e+00  0.0000000000000000e+00  0.0000000000000000e+00  0.0000000000000000e+00  0.0000000000000000e+00  0.0000000000000000e+00  0.0000000000000000e+00  0.0000000000000000e+00  0.0000000000000000e+00  0.0000000000000000e+00  0.0000000000000000e+00  0.0000000000000000e+00  0.0000000000000000e+00  0.0000000000000000e+00  0.0000000000000000e+00  0.0000000000000000e+00  0.0000000000000000e+00  0.0000000000000000e+00  0.0000000000000000e+00  0.0000000000000000e+00  0.0000000000000000e+00  0.0000000000000000e+00  0.0000000000000000e+00  0.0000000000000000e+00  0.0000000000000000e+00  0.0000000000000000e+00  0.0000000000000000e+00  0.0000000000000000e+00  0.0000000000000000e+00  0.0000000000000000e+00  0.0000000000000000e+00  0.0000000000000000e+00  0.0000000000000000e+00  0.0000000000000000e+00  0.0000000000000000e+00  0.0000000000000000e+00  0.0000000000000000e+00  0.0000000000000000e+00  0.0000000000000000e+00  0.0000000000000000e+00  0.0000000000000000e+00  0.0000000000000000e+00  0.0000000000000000e+00  0.0000000000000000e+00  0.0000000000000000e+00  0.0000000000000000e+00  0.0000000000000000e+00  0.0000000000000000e+00  0.0000000000000000e+00  0.0000000000000000e+00  0.0000000000000000e+00  0.0000000000000000e+00  0.0000000000000000e+00  0.0000000000000000e+00  0.0000000000000000e+00  0.0000000000000000e+00  0.0000000000000000e+00  0.0000000000000000e+00  0.0000000000000000e+00  0.0000000000000000e+00  0.0000000000000000e+00  0.0000000000000000e+00  0.0000000000000000e+00  0.0000000000000000e+00  0.0000000000000000e+00  0.0000000000000000e+00  0.0000000000000000e+00  0.0000000000000000e+00  0.0000000000000000e+00  0.0000000000000000e+00  0.0000000000000000e+00  0.0000000000000000e+00  0.0000000000000000e+00  0.0000000000000000e+00  0.0000000000000000e+00  0.0000000000000000e+00  0.0000000000000000e+00  0.0000000000000000e+00  0.0000000000000000e+00  0.0000000000000000e+00  0.0000000000000000e+00  0.0000000000000000e+00  0.0000000000000000e+00  0.0000000000000000e+00  0.0000000000000000e+00  0.0000000000000000e+00  0.0000000000000000e+00  0.0000000000000000e+00  0.0000000000000000e+00  0.0000000000000000e+00  0.0000000000000000e+00  0.0000000000000000e+00  0.0000000000000000e+00  0.0000000000000000e+00  0.0000000000000000e+00  0.0000000000000000e+00  0.0000000000000000e+00  0.0000000000000000e+00  0.0000000000000000e+00  0.0000000000000000e+00  0.0000000000000000e+00  0.0000000000000000e+00  0.0000000000000000e+00  0.0000000000000000e+00  0.0000000000000000e+00  0.0000000000000000e+00  0.0000000000000000e+00  0.0000000000000000e+00  0.0000000000000000e+00  0.0000000000000000e+00  0.0000000000000000e+00  0.0000000000000000e+00  0.0000000000000000e+00  0.0000000000000000e+00  0.0000000000000000e+00  0.0000000000000000e+00  0.0000000000000000e+00  0.0000000000000000e+00  0.0000000000000000e+00  0.0000000000000000e+00  0.0000000000000000e+00  0.0000000000000000e+00  0.0000000000000000e+00  0.0000000000000000e+00  0.0000000000000000e+00  0.0000000000000000e+00  0.0000000000000000e+00  0.0000000000000000e+00  0.0000000000000000e+00  0.0000000000000000e+00  0.0000000000000000e+00  0.0000000000000000e+00  0.0000000000000000e+00  0.0000000000000000e+00  0.0000000000000000e+00  0.0000000000000000e+00  0.0000000000000000e+00  0.0000000000000000e+00  0.0000000000000000e+00  0.0000000000000000e+00  0.0000000000000000e+00  0.0000000000000000e+00  0.0000000000000000e+00  0.0000000000000000e+00  0.0000000000000000e+00  0.0000000000000000e+00  0.0000000000000000e+00  0.0000000000000000e+00  0.0000000000000000e+00  0.0000000000000000e+00  0.0000000000000000e+00  0.0000000000000000e+00  0.0000000000000000e+00  0.0000000000000000e+00  0.0000000000000000e+00  0.0000000000000000e+00  0.0000000000000000e+00  0.0000000000000000e+00  4.3217899294384819e-05  4.3026322448719497e-05  4.2864781101767883e-05  4.2765074354085844e-05  4.2691581116587327e-05  4.2644423119086026e-05  4.2617369876989682e-05  4.2612835220458501e-05  4.2620095946306173e-05  4.2653432875411595e-05  4.2731050573088077e-05  4.2834726880093310e-05  4.2941301814232793e-05  4.3067545266689398e-05  4.3223530245319762e-05  4.3480624248044245e-05  4.3618117728964877e-05  4.3791220714976950e-05  4.3970687676086066e-05  4.4127149219147224e-05  4.4260797244332840e-05  4.4401278221461898e-05  4.4503116001612962e-05  4.4579932022555367e-05  4.4633944526151131e-05  4.4664075677928101e-05  4.4654504645857122e-05  4.4622321825320700e-05  4.4518799361613776e-05  4.4399172094401792e-05  4.4242240279906277e-05  4.4051081862009510e-05  4.3837033663567573e-05  4.3656924370135527e-05  4.3289314130433971e-05  4.3064708289321406e-05  4.2855856073655705e-05  4.2678248338887676e-05  4.2522003342763400e-05  4.2406538176984836e-05  4.2338294341193305e-05  4.2325499283925658e-05  4.2366474226663906e-05  4.2439574020358242e-05  4.2565552872606756e-05  4.2724287818638415e-05  4.2892679547533081e-05  4.3088736698073928e-05  4.3301955160572398e-05  4.3646402328830335e-05  4.3820760808522834e-05  4.4003812221513732e-05  4.4174372494251346e-05  4.4320930913341952e-05  4.4451414971967343e-05  4.4565105466890088e-05  4.4622845458676898e-05  4.4659604267365942e-05  4.4631227197614604e-05  4.4567288214425947e-05  4.4500476247894444e-05  4.4429237061664242e-05  4.4318792947327955e-05  4.4206340972762818e-05  4.4059341588861207e-05  4.3868088839548830e-05  4.3671653131504591e-05  4.3511467421304872e-05  4.5258363642071830e-05  4.4272388579210860e-05  4.5292959024880789e-05  4.4234887561218393e-05  4.4050073820077384e-05  4.5603581000277820e-05  4.5424772843966311e-05  4.4002251940152900e-05  4.4023784140553232e-05  4.5951155912306924e-05  4.5927618877925574e-05  4.5921198397208313e-05  4.6068236917819002e-05  4.4259681189952201e-05  4.4130592753597487e-05  4.6252792811294279e-05  4.4397165889954214e-05  4.4332422722154700e-05  4.6089350969666739e-05  4.5079515582279012e-05  4.4648233127037494e-05  4.4832402069069533e-05  4.4612724607802396e-05  4.4175475989331192e-05  4.3993869764668264e-05  4.4129535174434795e-05  4.4288567755434741e-05  4.4030784263955417e-05  4.4987213625471853e-05  4.5859766125782236e-05  4.6243417892429907e-05  4.6603946414768191e-05  4.7047681946826522e-05  4.7348869669332996e-05  4.7914706999443651e-05  4.8164372635311573e-05  4.6696103029538793e-05  4.8869745572950799e-05  4.8980238485825179e-05  4.7826164904573475e-05  4.8583172881167795e-05  4.7327763643343428e-05  4.7783488011441275e-05  4.8954115192153219e-05  4.8150707052791449e-05  4.8971446989801661e-05  4.8050242450484665e-05  4.8463798678250285e-05  4.7169259766509046e-05  4.7531593442341386e-05  4.8302581092193040e-05  4.9167181451616860e-05  4.8644112762567062e-05  4.9271191553024923e-05  4.8623023591627402e-05  4.9080631793527418e-05  4.8319974722889183e-05  4.8595855501422610e-05  4.7724629561100530e-05  4.7957202378076748e-05  4.8773237173678973e-05  4.7785645836840805e-05  4.8544275521988106e-05  4.7003007289717167e-05  4.6618348960732496e-05  4.7321741199631188e-05  4.7547345555755164e-05  4.6656256034575277e-05  4.6099350894771234e-05  4.7861144747390751e-05  4.8682639900706823e-05  4.6564982679169201e-05  4.7059752548854482e-05  4.7717441424457152e-05  4.7505397720912485e-05  4.7849824168289654e-05  4.8839444441717503e-05  4.7790107473850188e-05  4.8581846250251685e-05  4.9455258157821848e-05  4.8871144643173714e-05  4.8100664574551589e-05  4.8096427334430173e-05  4.8989294311189827e-05  4.7952992899929787e-05  4.7290827148302911e-05  4.6992180889666730e-05  4.7387815614399185e-05  4.6484532910775401e-05  4.6021713074137747e-05  4.5694615971875408e-05  4.5926833036248618e-05  4.9387476495426829e-05  4.5877509558101403e-05  4.6246241444191535e-05  4.5465405009016890e-05  4.5949086204614021e-05  4.5392540896879500e-05  4.5572979419052530e-05  4.6191156974669637e-05  4.7687140288899278e-05  4.6988166679987437e-05  4.4976159571350990e-05  4.7152144253803996e-05  4.6918349668130754e-05  4.6257686355252582e-05  4.6279534314275437e-05  4.6662404525976649e-05  4.5893077060743091e-05  4.5555196500391493e-05  4.5617296176792097e-05  4.6139819544667136e-05  4.5386586956043030e-05  4.5927644717514180e-05  4.4819016715750372e-05  4.6781927435565952e-05  4.9708055158142945e-05  4.5272120200721077e-05  4.9675384638731105e-05  4.7306504779861184e-05  4.6058712562316266e-05  4.7089341303174148e-05  4.6036451677111231e-05  4.5124309654928716e-05  4.4990963718668969e-05  4.5783931675758425e-05  4.7167931336828687e-05  4.6815448743614362e-05  4.5598299705478350e-05  4.8956995750610612e-05  4.5317579112833974e-05  4.4930994394091021e-05  4.7065902894722229e-05  4.6513363992787334e-05  4.6601938664304104e-05  4.7182426584400226e-05  4.7056647522946108e-05  4.6308673382778077e-05  4.6075070484702264e-05  4.5785964403597450e-05  4.5226227630189597e-05  4.5440213923121925e-05  4.4836686237546398e-05  4.4982888447582401e-05  4.5321568150397689e-05  4.4579208661043266e-05  4.6000034171989599e-05  4.5463978422232972e-05  4.4804073558772815e-05  4.4134145857338348e-05  4.5769110800088961e-05  4.6778833049268658e-05  4.7378122152754741e-05  4.4367694097591337e-05  4.5555458720295452e-05  4.6045375425896531e-05  4.5094858751944858e-05  4.5960401200644091e-05  4.6073282276797495e-05  4.5477354717612866e-05  4.4116245397941655e-05  4.5020836888989267e-05  4.6058899347901711e-05  4.4136503849385735e-05  4.5101701544509721e-05  4.5808411976156083e-05  4.6514518242693458e-05  4.5940939323690442e-05  4.5333742931106494e-05  4.4722248206957872e-05  4.4874803318486788e-05  4.5204708678115163e-05  4.7222982080842318e-05  4.5475365676915195e-05  4.5668806928432958e-05  4.5880137891835369e-05  4.4176934041159913e-05  4.4200183894798373e-05  4.4049350713322768e-05  4.4298726781598406e-05  4.4179434362489748e-05  4.9415121907227538e-05  4.9942040779175586e-05  4.5244655929393072e-05  4.4218169225017350e-05  4.4148148232378017e-05  4.4957439858639356e-05  4.4097505377096706e-05  4.6015485014033959e-05  4.5876390207311137e-05  4.7086519781482751e-05  4.6401034818236007e-05  4.6070327510573685e-05  4.6320100986401110e-05  4.9518705545633570e-05  4.9618629256500102e-05  4.8235867292346185e-05  4.6123111144109431e-05  4.5889208253507077e-05  4.6954794322195358e-05  4.6463541438210502e-05  4.6911898521224003e-05  4.4049596623964796e-05  4.3900863820166089e-05  4.9480142413418203e-05  4.4950609862386132e-05  4.6859043491932772e-05  4.6533078121642845e-05  4.7611824190583866e-05  4.4981198954478463e-05  4.7588974185146295e-05  4.8133575938818238e-05  4.3832077014651095e-05  5.0012612368454957e-05  4.7381215665492727e-05  4.4694177839520409e-05  4.7524112965979969e-05  4.6916029410924497e-05  4.6723538280951292e-05  4.9530405264269187e-05  4.4079833562760784e-05  4.6129231423742323e-05  4.6933305970391221e-05  5.0017223115399907e-05  4.5298845467582248e-05  4.6519210353041544e-05  4.9974022283298436e-05  4.6772014621044005e-05  4.6965645909299443e-05  5.0039684076949410e-05  4.7705775337724638e-05  4.5107422532627268e-05  4.6102603237384097e-05  4.6980442534294360e-05  4.7978667258229797e-05  4.6773509471823928e-05  4.3724527543047945e-05  4.7562870600245910e-05  4.3794980532844617e-05  4.3901267917696978e-05  4.3809752029322530e-05  4.3894356681148704e-05  4.5446931588966889e-05  4.5413440731075869e-05  4.4871845860521733e-05  4.4885063678614703e-05  4.6764620969836771e-05  4.7892187264500546e-05  4.5197411773016774e-05  4.5287599763399605e-05  4.6646690339183184e-05  4.8236448655804393e-05  4.7846698169102815e-05  4.8362876839894748e-05  4.4917769873889774e-05  4.8226318723054021e-05  4.5761792698393740e-05  4.7562838961506274e-05  5.0032429635233014e-05  4.5945057776067548e-05  4.7605501776526527e-05  4.7096989099596915e-05  4.6912358368283149e-05  4.7038615023119990e-05  4.8179605063217439e-05  4.9530607577747643e-05  4.4717212467646171e-05  4.3794016690737498e-05  4.3531310707101880e-05  4.2927584097587962e-05  4.1952296911367997e-05  4.3161706813742459e-05  4.1971063080768238e-05  4.3573386615868305e-05  4.2996090534704841e-05  4.3737278367319597e-05  4.3370698075948561e-05  4.2282190066672869e-05  4.1844337670498674e-05  4.2173169964493312e-06  3.1311879742321078e-06  4.4876017008210501e-06  3.4077616940844191e-06  4.0917488596142679e-05  4.0375327578696013e-05  4.0475573093014682e-05  4.0614836385882225e-05  3.9063769383481860e-05  3.6286486808112983e-05  4.0716006117918768e-05  4.0901808308945426e-05  3.9953497930572793e-05  3.3667475227069144e-05  3.1245521091865448e-05  3.2859529881111921e-05  2.8288431485687232e-05  2.9575954014854214e-05  7.2114000392644097e-06  6.7296673989477492e-06  7.2580453457704420e-06  6.8345994925079886e-06  4.2395746583248822e-06  4.4612306433990305e-06  4.3061343756820606e-06  2.4875004080053605e-05  2.6623475364769902e-05  2.8631747792423338e-05  3.0553022959317089e-05  7.4250223891216270e-06  5.9512191327966813e-06  5.8047175331842852e-06  6.5619450852980012e-06  7.4375065941311185e-06  6.8998916034788937e-06  7.1214460663473302e-06  5.6684854957440867e-06  2.5026750603605753e-05  2.6702601588676281e-05  6.0512104470605545e-06  5.7339371116059444e-06  5.7891203703381078e-06  3.9233863572715651e-05  3.5938048890297769e-05  3.3815710710489260e-05  3.0328342865664088e-05  2.8682761666739073e-05  2.5258691439200469e-05  2.7410285559879389e-05  2.3521051360228107e-05  2.6379612343967293e-05  1.9936283881778612e-05  3.9428468594030158e-05  3.5943128872442108e-05  3.4107972729156437e-05  3.0604632785128929e-05  3.1417249439650007e-05  2.9187145727514190e-05  2.5738500228371861e-05  2.4302628278778645e-05  2.7153979680064881e-05  2.0746891413450529e-05  4.0848961368486879e-05  3.8984495338895882e-05  3.6302007524828958e-05  3.3561338455780322e-05  3.1126103544216427e-05  3.2858324974572673e-05  2.8306985042267379e-05  2.9615828270731576e-05  2.4902341472436586e-05  2.5952520249812626e-05  4.0900810839250334e-05  4.0943946562712297e-05  4.0738175271969439e-05  4.0624212747727417e-05  2.6321671611790166e-05  2.1985602425331815e-05  2.4470408114863150e-05  2.1280471408640289e-05  2.1208395853143976e-05  2.4657591428895703e-05  4.8342724233187690e-06  2.2078061716464978e-05  2.7497285954797934e-05  2.1389663895266410e-05  2.2020143599700753e-05  2.6710021160017122e-05  2.3682161081800406e-05  4.0873799499996026e-05  1.8647344581497490e-05  1.8125513573854224e-05  2.6260640317464544e-06  2.7211071740425914e-06  2.6104999465228064e-06  1.5604497791553483e-05  1.7056155490210430e-05  2.1002795610877961e-05  2.2520977464516338e-05  2.2247620484810490e-05  2.6906737294400672e-05  2.1863047870527235e-05  2.6396982072258489e-05  2.0842341971355541e-05  2.6395572179220667e-05  2.2704061034717965e-05  2.8922064537252233e-05  2.4055114092152358e-05  2.9576565453848908e-05  2.0400223099512464e-05  2.6322302010866083e-05  2.2177289066716969e-05  2.8135887748326630e-05  2.3507071459318294e-05  2.9222251371939939e-05  2.4346527377607419e-05  2.9962024886843046e-05  2.5005467155004806e-05  3.0439857633331395e-05  2.5306918275864342e-05  3.0602581800301738e-05  2.5209236635421319e-05  3.0484218255257042e-05  2.4664986673750569e-05  3.0187868908984017e-05  2.5235346225857640e-05  3.0626523494504514e-05  2.5470714612689656e-05  3.0740985275359049e-05  2.5298078072495979e-05  3.0585578354033636e-05  1.7333327798550864e-05  1.6506227953049832e-05  3.4464286522848125e-05  3.4425490703982008e-05  1.7459831366929099e-05  1.6683288095669587e-05  2.5218550167982852e-05  3.0206328505199593e-05  2.4769668589461551e-05  2.9589450368127090e-05  2.3935648946646495e-05  2.5268581749784294e-05  3.0159577765273372e-05  2.4680674854964823e-05  2.9409037284751034e-05  2.3755962297074685e-05  2.1778727032729410e-05  1.6922634354208998e-05  1.7492732699762582e-05  3.4398023917323801e-05  3.3603901734950622e-05  3.4518719653687578e-05  3.3849553713444542e-05  3.5496363675289821e-05  1.4959214443090708e-05  3.5025989724541713e-05  1.4417199093429495e-05  3.5041679609412446e-05  1.9431551701813060e-05  3.4809357700719500e-05  2.1460763782331453e-05  1.6854428973641722e-05  1.2834318411977286e-05  1.9570729778141950e-05  2.1008005383982759e-05  1.6103919482212440e-05  3.3986594056477095e-05  1.2936182637628487e-05  3.3494418489571821e-05  1.6646869634526584e-05  1.5483930863315900e-05  1.7314895254571939e-05  2.4354017811015376e-05  1.1862460624054096e-05  1.4847755606315017e-05  8.0962490617772244e-06  3.1811309197187877e-05  2.1245304061712151e-06  3.2421927043425898e-05  3.1030691161000129e-05  1.8453070135278283e-05  1.8276228665144710e-05  2.4449722698828986e-05  1.8054002604522111e-05  3.6436819670830635e-05  3.6733263019488488e-05  3.5259535106623754e-05  3.0284736874842411e-05  3.1478339858185274e-05  2.6245138391290662e-05  2.7317736657379898e-05  2.1699466652387939e-05  2.2848830658528485e-05  2.1670134596029388e-05  2.9247451469909908e-05  2.3788446483433724e-05  2.9486535881333284e-05  2.4269981802184353e-05  2.9921385687443145e-05  2.4863325725795998e-05  3.0630948695018468e-05  1.2798947365386204e-05  1.2435827076112696e-05  1.2194000294562943e-05  1.5381993324466250e-05  2.9691394168633149e-05  3.0154920436026814e-05  8.7457689527759891e-06  2.6369854886602661e-05  1.2845710817048288e-05  1.3053725366726858e-05  1.8936621030372818e-05  1.8430188075615033e-06  1.9243168523938213e-06  1.7463593524241586e-06  3.5985537201326834e-05  3.9647202232157603e-05  2.2593348635245224e-05  1.7303918245464166e-05  2.2891503382456695e-05  8.4546790910637428e-06  8.3386587258616811e-06  1.0008557033508080e-05  1.6194271966726393e-05  2.1055351624090099e-05  2.7129877784308900e-05  2.6923165091444404e-05  1.9640392634733115e-05  2.5040949685857479e-05  3.1063202344047697e-05  3.0044225036358985e-05  2.3332226817760272e-05  2.7618191284202479e-05  2.1071130736416700e-05  2.5541473809698722e-05  3.1517268110741036e-05  2.9803479602138229e-05  2.3138668239499726e-05  2.7907438027870271e-05  2.0575919077765843e-05  2.4627167789757057e-05  3.0870987168555383e-05  2.7970641342222082e-05  2.1795900226673504e-05  2.5996519744802480e-05  1.8897924186632922e-05  2.2647161840698095e-05  1.5782046124031714e-05  1.8155698067662958e-05  3.8358359654412298e-05  3.7152249731835186e-05  3.8468567113499118e-05  3.0860750973850684e-05  3.5467028705849104e-05  1.7737109202756829e-05  1.1718290368210025e-05  3.8543917505425632e-05  3.8544860661362710e-05  3.5873060668279164e-05  3.4561420297366385e-05  3.2104894687542662e-05  1.8610702908281073e-05  4.0861631792396713e-05  3.3959771096956819e-05  2.9082391572270577e-05  1.1866114349140589e-05  1.4458900838543773e-05  3.4719740539027856e-05  1.8666705832946253e-05  1.7729524084365514e-05  4.0981975397491298e-05  3.4240017698828938e-05  1.2394509700835927e-05  3.4602847111697458e-05  3.4887587040418229e-05  3.4276078393292375e-05  3.0176838758562930e-05  1.8450449873740848e-05  1.7960092880363974e-05  9.9755494514899420e-06  3.5316778784443508e-05  3.4955945907394018e-05  1.7185926124631020e-05  1.4135981838712266e-05  1.5418830416165509e-05  1.0678762664142421e-05  7.6951928115121380e-06  1.6462407219612170e-05  1.1188170214910950e-05  7.2725496573630742e-06  9.5539225767414256e-06  1.1839586502426142e-05  3.0834048281734442e-05  1.0533606626463399e-05  1.0041779089223771e-05  1.4521802893630536e-05  3.3776541057359624e-05  3.6192173192361469e-05  3.3994108093534429e-05  3.5583597615592342e-05  4.16321810240