<?xml version="1.0"?>
<VTKFile type="UnstructuredGrid"  version="0.1"  >
<UnstructuredGrid>
<Piece  NumberOfPoints="1297" NumberOfCells="2496">
<Points>
<DataArray  type="Float64"  NumberOfComponents="3"  format="ascii">0 0 0  0 1 0  1 1 0  1 0 0  1.1 -0.1 0  -0.1 -0.1 0  1.1 1.1 0  -0.1 1.1 0  0.3064192942121542 0.6589703864386171 0  0.3070696288939377 0.3415364479984963 0  0.6946966969177771 0.3405230849914304 0  0.694738031264415 0.6597895735390301 0  0.5005464110044204 0.5001815194566637 0  0 0.9499999999997918 0  0 0.8999999999995836 0  0 0.8499999999996529 0  0 0.7999999999999998 0  0 0.7500000000003466 0  0 0.7000000000006934 0  0 0.6500000000010401 0  0 0.6000000000013869 0  0 0.5500000000017335 0  0 0.5000000000020587 0  0 0.4500000000018723 0  0 0.4000000000016644 0  0 0.3500000000014564 0  0 0.3000000000012483 0  0 0.2500000000010403 0  0 0.2000000000008322 0  0 0.1500000000006241 0  0 0.100000000000416 0  0 0.05000000000020799 0  0.04999999999989965 0 0  0.09999999999981467 0 0  0.1499999999997036 0 0  0.1999999999995579 0 0  0.2499999999994121 0 0  0.2999999999992664 0 0  0.3499999999991206 0 0  0.3999999999989749 0 0  0.4499999999988292 0 0  0.4999999999986943 0 0  0.5499999999988151 0 0  0.5999999999989468 0 0  0.6499999999990784 0 0  0.69999999999921 0 0  0.7499999999993417 0 0  0.7999999999994734 0 0  0.8499999999996051 0 0  0.8999999999997368 0 0  0.9499999999998684 0 0  1 0.04999999999989965 0  1 0.09999999999981467 0  1 0.1499999999997036 0  1 0.1999999999995579 0  1 0.2499999999994121 0  1 0.2999999999992664 0  1 0.3499999999991206 0  1 0.3999999999989749 0  1 0.4499999999988292 0  1 0.4999999999986943 0  1 0.5499999999988151 0  1 0.5999999999989468 0  1 0.6499999999990784 0  1 0.69999999999921 0  1 0.7499999999993417 0  1 0.7999999999994734 0  1 0.8499999999996051 0  1 0.8999999999997368 0  1 0.9499999999998684 0  0.9499999999997918 1 0  0.8999999999995836 1 0  0.8499999999996529 1 0  0.7999999999999998 1 0  0.7500000000003466 1 0  0.7000000000006934 1 0  0.6500000000010401 1 0  0.6000000000013869 1 0  0.5500000000017335 1 0  0.5000000000020587 1 0  0.4500000000018723 1 0  0.4000000000016644 1 0  0.3500000000014564 1 0  0.3000000000012483 1 0  0.2500000000010403 1 0  0.2000000000008322 1 0  0.1500000000006241 1 0  0.100000000000416 1 0  0.05000000000020799 1 0  -0.1 1.05000000000004 0  -0.1 1.000000000000079 0  -0.1 0.9500000000001624 0  -0.1 0.9000000000003032 0  -0.1 0.850000000000444 0  -0.1 0.8000000000005848 0  -0.1 0.7500000000007256 0  -0.1 0.7000000000008665 0  -0.1 0.6500000000010508 0  -0.1 0.6000000000012352 0  -0.1 0.5500000000014196 0  -0.1 0.500000000001539 0  -0.1 0.4500000000014195 0  -0.1 0.4000000000013 0  -0.1 0.3500000000011588 0  -0.1 0.3000000000010178 0  -0.1 0.2500000000008986 0  -0.1 0.2000000000007579 0  -0.1 0.1500000000006174 0  -0.1 0.1000000000005272 0  -0.1 0.05000000000040083 0  -0.1 2.671196597248127e-13 0  -0.1 -0.0499999999998666 0  -0.0500000000000906 -0.1 0  -1.730560139634463e-13 -0.1 0  0.04999999999975802 -0.1 0  0.09999999999961506 -0.1 0  0.1499999999994613 -0.1 0  0.199999999999302 -0.1 0  0.2499999999991446 -0.1 0  0.2999999999990088 -0.1 0  0.3499999999988296 -0.1 0  0.3999999999986936 -0.1 0  0.4499999999985143 -0.1 0  0.4999999999984002 -0.1 0  0.5499999999985247 -0.1 0  0.5999999999986493 -0.1 0  0.6499999999987955 -0.1 0  0.6999999999989417 -0.1 0  0.7499999999990659 -0.1 0  0.7999999999992116 -0.1 0  0.8499999999993573 -0.1 0  0.8999999999994526 -0.1 0  0.949999999999584 -0.1 0  0.9999999999997226 -0.1 0  1.049999999999861 -0.1 0  1.1 -0.0500000000000906 0  1.1 -1.730560139634463e-13 0  1.1 0.04999999999975802 0  1.1 0.09999999999961506 0  1.1 0.1499999999994613 0  1.1 0.199999999999302 0  1.1 0.2499999999991446 0  1.1 0.2999999999990088 0  1.1 0.3499999999988296 0  1.1 0.3999999999986936 0  1.1 0.4499999999985143 0  1.1 0.4999999999984002 0  1.1 0.5499999999985247 0  1.1 0.5999999999986493 0  1.1 0.6499999999987955 0  1.1 0.6999999999989417 0  1.1 0.7499999999990659 0  1.1 0.7999999999992116 0  1.1 0.8499999999993573 0  1.1 0.8999999999994526 0  1.1 0.949999999999584 0  1.1 0.9999999999997226 0  1.1 1.049999999999861 0  1.05000000000004 1.1 0  1.000000000000079 1.1 0  0.9500000000001624 1.1 0  0.9000000000003032 1.1 0  0.850000000000444 1.1 0  0.8000000000005848 1.1 0  0.7500000000007256 1.1 0  0.7000000000008665 1.1 0  0.6500000000010508 1.1 0  0.6000000000012352 1.1 0  0.5500000000014196 1.1 0  0.500000000001539 1.1 0  0.4500000000014195 1.1 0  0.4000000000013 1.1 0  0.3500000000011588 1.1 0  0.3000000000010178 1.1 0  0.2500000000008986 1.1 0  0.2000000000007579 1.1 0  0.1500000000006174 1.1 0  0.1000000000005272 1.1 0  0.05000000000040083 1.1 0  2.671196597248127e-13 1.1 0  -0.0499999999998666 1.1 0  0.2968091081876904 0.6466044822829451 0  0.2863150720470488 0.6303505226679248 0  0.2766925410371761 0.6117875100703534 0  0.2684485992473819 0.5913147291078801 0  0.2619217418630344 0.5695510522859211 0  0.2572237038977735 0.5468424556678271 0  0.2544087718209017 0.5235471262673305 0  0.2535196264197284 0.500039285228431 0  0.254537491371111 0.4764691146694455 0  0.2574720192955924 0.4531798475127425 0  0.2623024126153617 0.4305249225591931 0  0.268954664620043 0.408832761664659 0  0.2773037922330429 0.3884649576751526 0  0.2870150919647995 0.3699495884695921 0  0.297537555577445 0.353769959987252 0  0.3175956915125099 0.3300956237456444 0  0.3315189681436946 0.3173643819654766 0  0.3479396954571671 0.3049488033711678 0  0.3663565604636904 0.2935586188692772 0  0.38640105290695 0.2835706027276594 0  0.4077272061603641 0.275210588644033 0  0.4300299743761291 0.26860308430221 0  0.4530375184357347 0.2638016505449671 0  0.4765283768500548 0.2608546173202263 0  0.5002426830759017 0.2597896168919061 0  0.5239887867649888 0.2606124560357587 0  0.5475373345618496 0.2633190385004314 0  0.5706471970740835 0.2678937243303782 0  0.5930575251743732 0.2743122306227802 0  0.614518075461339 0.2825090452743649 0  0.6347336903531964 0.2923768371620009 0  0.6533416295894813 0.3037220966202017 0  0.6699623007351542 0.31616910049251 0  0.6840115429234731 0.3289433655543452 0  0.704425331165474 0.3530047434910352 0  0.7149108731416101 0.3692121736293653 0  0.7246386328102975 0.3879235321655689 0  0.7329604788941466 0.4085199658412501 0  0.7395422216497299 0.4303823792063153 0  0.7442784399722955 0.4531317031757252 0  0.7471352686465562 0.4764586466244292 0  0.7480967948250634 0.5000771437942064 0  0.7471534509271351 0.5237089867597771 0  0.7443077650662021 0.5471067987981919 0  0.7395875729441023 0.5698610431272146 0  0.7330026995751521 0.591749061457329 0  0.7247159557916216 0.6123060592453839 0  0.71499300651966 0.6310385382425066 0  0.7045016369906336 0.6472649200170139 0  0.6840392424582078 0.6713860957658279 0  0.6699478500027335 0.6842012444727088 0  0.6533530149697023 0.6966515211718979 0  0.6347679412027355 0.7079994391814066 0  0.6145792012186505 0.7178773007669849 0  0.5931268481292271 0.7260926700121814 0  0.5706939136775639 0.7325493998531859 0  0.547580312478274 0.7371556269543185 0  0.524024134232455 0.7398909669805015 0  0.5002592340577245 0.7407442616733041 0  0.4765200412725045 0.7397138438282702 0  0.4530255631020216 0.7368065542400691 0  0.4299788776061622 0.7320463819014968 0  0.4076138181809542 0.7254708492560776 0  0.3862380915362639 0.7171579166201394 0  0.3660933971169473 0.7071765942837308 0  0.3475493871996949 0.6957540673441452 0  0.3310231469683951 0.6832906088022144 0  0.3170075273108959 0.6704878802072635 0  0.3778194038288049 0.3145124570479689 0  0.2839300990477016 0.4417523147399685 0  0.377639958141735 0.6860898809630529 0  0.2836415729820209 0.5583833155743995 0  0.7148745276982594 0.5807402894837722 0  0.6024663528660188 0.6956248076961854 0  0.6223850950113247 0.3128180103846466 0  0.7193279544808211 0.4408949229187115 0  0.7232537323258343 0.5113234127400058 0  0.5575283777237203 0.2928324648007582 0  0.4435313468375187 0.295689332449979 0  0.4421513888355829 0.7051565671329102 0  0.5352143437824344 0.7094265778954401 0  0.2789718184016137 0.4882691982020528 0  0.2930443032620689 0.397847295357504 0  0.4888878490099454 0.2933699023270704 0  0.2978107714373744 0.6009757576207319 0  0.7027977138476765 0.395472731608303 0  0.4886723559333182 0.7108716716876607 0  0.6431373652714151 0.6783906216079577 0  0.3396216644064818 0.3348612946092782 0  0.6620244748415162 0.3353676203766707 0  0.3397055137587349 0.6680689803568652 0  0.6990000782538782 0.624533883196449 0  0.3085431967928935 0.3590938173357837 0  0.3096646888715698 0.6404565440446371 0  0.6782715189814336 0.6595950292071143 0  0.6936293613392047 0.3580062833297934 0  0.3579898045257553 0.6773151008181825 0  0.3681195087984564 0.6585580341254229 0  0.3885995236672559 0.6647536554156017 0  0.3776467094956352 0.6380227160688157 0  0.3996727130105361 0.6426546707831723 0  0.3870862793904016 0.6140029403749384 0  0.4140739464538696 0.6177242532583338 0  0.398408639304028 0.58424889463561 0  0.3608776489700302 0.609192549672342 0  0.4317854630396634 0.5864247843081477 0  0.4121240940456226 0.5488547125620337 0  0.3728242227113787 0.5530942230909202 0  0.3892871338496379 0.5144396070517185 0  0.3516043063265309 0.5162112028262276 0  0.3647756549926701 0.4820448830876097 0  0.4042793882973189 0.4763850098147258 0  0.3836986927164403 0.4439941479695619 0  0.4192459476481341 0.4374180992946411 0  0.3996670219939754 0.4067250660285987 0  0.4319157545547757 0.3926053926927245 0  0.3665324389202298 0.4103991615562799 0  0.4083609434569179 0.3722064039929389 0  0.4406309481171558 0.622078068877843 0  0.4660775997335021 0.5959945129707132 0  0.4842316698104557 0.6245944427807368 0  0.5026379420075642 0.5981978979312607 0  0.5201334462790708 0.6248332349838033 0  0.5383288844515164 0.5981824629599337 0  0.5554409938252599 0.6242061631776291 0  0.5733840557643131 0.5978311588941947 0  0.5907373237919982 0.6252965247923312 0  0.6077940449174788 0.5899216225319114 0  0.5923803401545387
[...]
<PointData  Scalars="state"> 
<DataArray  type="Float64"  Name="state"  format="ascii">0.0000000000000000e+00  0.0000000000000000e+00  0.0000000000000000e+00  0.0000000000000000e+00  0.0000000000000000e+00  0.0000000000000000e+00  0.0000000000000000e+00  0.0000000000000000e+00  -3.1016212044183721e-02  -3.0981498320544559e-02  -3.1154342269481668e-02  -3.1177114487754436e-02  -6.8967623994584167e-03  0.0000000000000000e+00  0.0000000000000000e+00  0.0000000000000000e+00  0.0000000000000000e+00  0.0000000000000000e+00  0.0000000000000000e+00  0.0000000000000000e+00  0.0000000000000000e+00  0.0000000000000000e+00  0.0000000000000000e+00  0.0000000000000000e+00  0.0000000000000000e+00  0.0000000000000000e+00  0.0000000000000000e+00  0.0000000000000000e+00  0.0000000000000000e+00  0.0000000000000000e+00  0.0000000000000000e+00  0.0000000000000000e+00  0.0000000000000000e+00  0.0000000000000000e+00  0.0000000000000000e+00  0.0000000000000000e+00  0.0000000000000000e+00  0.0000000000000000e+00  0.0000000000000000e+00  0.0000000000000000e+00  0.0000000000000000e+00  0.0000000000000000e+00  0.0000000000000000e+00  0.0000000000000000e+00  0.0000000000000000e+00  0.0000000000000000e+00  0.0000000000000000e+00  0.0000000000000000e+00  0.0000000000000000e+00  0.0000000000000000e+00  0.0000000000000000e+00  0.0000000000000000e+00  0.0000000000000000e+00  0.0000000000000000e+00  0.0000000000000000e+00  0.0000000000000000e+00  0.0000000000000000e+00  0.0000000000000000e+00  0.0000000000000000e+00  0.0000000000000000e+00  0.0000000000000000e+00  0.0000000000000000e+00  0.0000000000000000e+00  0.0000000000000000e+00  0.0000000000000000e+00  0.0000000000000000e+00  0.0000000000000000e+00  0.0000000000000000e+00  0.0000000000000000e+00  0.0000000000000000e+00  0.0000000000000000e+00  0.0000000000000000e+00  0.0000000000000000e+00  0.0000000000000000e+00  0.0000000000000000e+00  0.0000000000000000e+00  0.0000000000000000e+00  0.0000000000000000e+00  0.0000000000000000e+00  0.0000000000000000e+00  0.0000000000000000e+00  0.0000000000000000e+00  0.0000000000000000e+00  0.0000000000000000e+00  0.0000000000000000e+00  0.0000000000000000e+00  0.0000000000000000e+00  0.0000000000000000e+00  0.0000000000000000e+00  0.0000000000000000e+00  0.0000000000000000e+00  0.0000000000000000e+00  0.0000000000000000e+00  0.0000000000000000e+00  0.0000000000000000e+00  0.0000000000000000e+00  0.0000000000000000e+00  0.0000000000000000e+00  0.0000000000000000e+00  0.0000000000000000e+00  0.0000000000000000e+00  0.0000000000000000e+00  0.0000000000000000e+00  0.0000000000000000e+00  0.0000000000000000e+00  0.0000000000000000e+00  0.0000000000000000e+00  0.0000000000000000e+00  0.0000000000000000e+00  0.0000000000000000e+00  0.0000000000000000e+00  0.0000000000000000e+00  0.0000000000000000e+00  0.0000000000000000e+00  0.0000000000000000e+00  0.0000000000000000e+00  0.0000000000000000e+00  0.0000000000000000e+00  0.0000000000000000e+00  0.0000000000000000e+00  0.0000000000000000e+00  0.0000000000000000e+00  0.0000000000000000e+00  0.0000000000000000e+00  0.0000000000000000e+00  0.0000000000000000e+00  0.0000000000000000e+00  0.0000000000000000e+00  0.0000000000000000e+00  0.0000000000000000e+00  0.0000000000000000e+00  0.0000000000000000e+00  0.0000000000000000e+00  0.0000000000000000e+00  0.0000000000000000e+00  0.0000000000000000e+00  0.0000000000000000e+00  0.0000000000000000e+00  0.0000000000000000e+00  0.0000000000000000e+00  0.0000000000000000e+00  0.0000000000000000e+00  0.0000000000000000e+00  0.0000000000000000e+00  0.0000000000000000e+00  0.0000000000000000e+00  0.0000000000000000e+00  0.0000000000000000e+00  0.0000000000000000e+00  0.0000000000000000e+00  0.0000000000000000e+00  0.0000000000000000e+00  0.0000000000000000e+00  0.0000000000000000e+00  0.0000000000000000e+00  0.0000000000000000e+00  0.0000000000000000e+00  0.0000000000000000e+00  0.0000000000000000e+00  0.0000000000000000e+00  0.0000000000000000e+00  0.0000000000000000e+00  0.0000000000000000e+00  0.0000000000000000e+00  0.0000000000000000e+00  0.0000000000000000e+00  0.0000000000000000e+00  0.0000000000000000e+00  0.0000000000000000e+00  0.0000000000000000e+00  0.0000000000000000e+00  0.0000000000000000e+00  0.0000000000000000e+00  0.0000000000000000e+00  0.0000000000000000e+00  0.0000000000000000e+00  0.0000000000000000e+00  0.0000000000000000e+00  0.0000000000000000e+00  0.0000000000000000e+00  0.0000000000000000e+00  -3.0226860836206813e-02  -2.9789189077817895e-02  -2.9268511575225514e-02  -2.8724705005622620e-02  -2.8262916839473812e-02  -2.7905720872261442e-02  -2.7634849614335023e-02  -2.7661625226603943e-02  -2.7694395442562841e-02  -2.7956518108761801e-02  -2.8325214497885626e-02  -2.8752237438080239e-02  -2.9172327944319860e-02  -2.9653507353063692e-02  -3.0105425081814206e-02  -3.0511223931804578e-02  -3.0202239570191365e-02  -2.9900456664779966e-02  -2.9586107953888965e-02  -2.9275147015736139e-02  -2.8876528608314075e-02  -2.8498681444582705e-02  -2.8255478092878879e-02  -2.8038385509406450e-02  -2.7981260071203943e-02  -2.8044739725639343e-02  -2.8242163632456876e-02  -2.8547735305426862e-02  -2.8898313098404096e-02  -2.9368171899436947e-02  -2.9780267444499030e-02  -3.0084907622159505e-02  -3.0384938614517295e-02  -3.0675686825414442e-02  -3.0444288646317080e-02  -2.9892737102960094e-02  -2.9369568788295653e-02  -2.8802367914778717e-02  -2.8334662821296343e-02  -2.7966553810488657e-02  -2.7754930758410571e-02  -2.7656109165580766e-02  -2.7741682116006045e-02  -2.8031484164659760e-02  -2.8396279957890531e-02  -2.8823260350707949e-02  -2.9416697970363826e-02  -2.9951663820692091e-02  -3.0500209669165081e-02  -3.0663092245477998e-02  -3.0359622713894464e-02  -3.0105320399929237e-02  -2.9776207755638922e-02  -2.9353712783948247e-02  -2.8861105800648060e-02  -2.8511585625579011e-02  -2.8165048298147751e-02  -2.7947789707370572e-02  -2.7908657466476920e-02  -2.8000089214111241e-02  -2.8184826490929852e-02  -2.8391791619376706e-02  -2.8784717432540848e-02  -2.9207091880628273e-02  -2.9550436045238441e-02  -2.9909797348111691e-02  -3.0228800267164353e-02  -3.0528287771447338e-02  -2.4178512726774664e-02  -2.3259938290069331e-02  -2.4161187451710107e-02  -2.3255603334719942e-02  -2.4237805312076741e-02  -2.3754851598603213e-02  -2.4317932318400730e-02  -2.3523253285461086e-02  -2.2779497004352611e-02  -2.2838148565739787e-02  -2.2432941219284446e-02  -2.2434118268188852e-02  -2.2244511214987595e-02  -2.2689745529608320e-02  -2.4868127856101110e-02  -2.1501894226329532e-02  -2.3942582832150738e-02  -2.4232326103127033e-02  -2.2040224845069654e-02  -2.5121605816206882e-02  -2.5586141910745736e-02  -2.5484710592271902e-02  -2.5871882482182269e-02  -2.5733871980068972e-02  -2.6856978687167795e-02  -2.6361127875831031e-02  -2.7147536865311902e-02  -2.7065573847381421e-02  -2.4944044544549907e-02  -2.1706970639845832e-02  -2.0683416928251538e-02  -1.8930067291648991e-02  -1.7739609041021169e-02  -1.6173371293464911e-02  -1.4689074246736889e-02  -1.3261619999066884e-02  -1.7886143107749265e-02  -1.1428146491755239e-02  -1.0518054046848486e-02  -1.3579142592974375e-02  -1.1223259718661491e-02  -1.4563629666286729e-02  -1.3379522668928726e-02  -1.0325633607616748e-02  -1.2798828317068391e-02  -1.0721141890459290e-02  -1.3815988851914058e-02  -1.2996594726864225e-02  -1.6161990986338325e-02  -1.6080961498412042e-02  -1.3738464210425006e-02  -1.0854170679533332e-02  -1.2888844025334288e-02  -1.0649650138027496e-02  -1.3007116403670681e-02  -1.1161773303763386e-02  -1.3832706588028435e-02  -1.2443437843445090e-02  -1.5539254868298652e-02  -1.3934599656084999e-02  -1.1039882295663868e-02  -1.3568532601468002e-02  -1.1144865381175796e-02  -1.6438159586688043e-02  -1.6752976713772832e-02  -1.7398331931137729e-02  -1.6729575862240095e-02  -1.6644063949317736e-02  -1.7906113117108817e-02  -1.5421597659465720e-02  -1.2589776887638427e-02  -1.9815078442280355e-02  -1.8155061087767922e-02  -1.6258450784506325e-02  -1.7009373996925686e-02  -1.5749118274035603e-02  -1.2154183576494957e-02  -1.6065764533734768e-02  -1.3055162611288905e-02  -9.7305743448711634e-03  -1.1669077282300374e-02  -1.4507989312478636e-02  -1.4023408562593726e-02  -1.0459610473355318e-02  -1.3608589818557367e-02  -1.6371888018366740e-02  -1.6472550126820199e-02  -1.4684618582458241e-02  -1.8786816628270735e-02  -1.9360970883308917e-02  -2.1227827414402569e-02  -2.1279951947651761e-02  -9.0234838221453610e-03  -1.9455610487753572e-02  -1.9285909258156719e-02  -1.9933384095914702e-02  -1.8112469565064630e-02  -2.1572738851572730e-02  -2.1878356340171889e-02  -2.0342343236359216e-02  -1.6386775441764010e-02  -1.9035860716127572e-02  -2.0806423820052624e-02  -1.8139047246058648e-02  -1.6099427467550963e-02  -1.8497105810912195e-02  -1.9096874106261309e-02  -1.6445378705946884e-02  -1.8748914137080745e-02  -2.0887474638686454e-02  -2.1399407051195782e-02  -2.0167793615979784e-02  -2.0083674734797007e-02  -1.8989124001526716e-02  -2.1288396060977537e-02  -1.6787124281856618e-02  -8.4244493065160856e-03  -2.1091249441183475e-02  -8.4767617037518981e-03  -1.4330679493024372e-02  -1.7547824809683549e-02  -1.4873570891796339e-02  -1.7695222886478377e-02  -1.9972580690886914e-02  -2.0515232988055365e-02  -1.8802462364814802e-02  -1.6915742912442432e-02  -1.8600861671376676e-02  -1.9252957115869957e-02  -1.0098170700942250e-02  -2.3108244118761924e-02  -2.3494722971339831e-02  -1.7288024670221235e-02  -1.9733203398099176e-02  -1.9214562026530799e-02  -1.7528098497257227e-02  -1.8476140213997135e-02  -2.0915864520536270e-02  -1.9174981470546013e-02  -2.0851887069673156e-02  -2.1288128251277492e-02  -2.2662685292014147e-02  -2.4218215209725488e-02  -2.4814349379017060e-02  -1.9926528358606407e-02  -2.2057988127139203e-02  -2.2266643898371255e-02  -2.2586347259207832e-02  -2.4545492439329884e-02  -2.5603056118202187e-02  -2.2861752979396265e-02  -1.9271687283048844e-02  -1.6873321580620135e-02  -2.4204748905940546e-02  -2.3457168917933997e-02  -2.2367339739677434e-02  -2.5167231906771732e-02  -2.2118248015346172e-02  -2.2046855433609715e-02  -2.3696009471421000e-02  -2.5587063314442493e-02  -2.2811177860397103e-02  -2.2243864706261159e-02  -2.3855500336966796e-02  -2.1020585004867441e-02  -2.3132575999618529e-02  -2.0392415469040543e-02  -2.2713058505998408e-02  -2.4558452565141064e-02  -2.5990879787738223e-02  -2.4519461840036914e-02  -2.1377890938907972e-02  -1.8097557705771122e-02  -2.3041260657093453e-02  -2.3679515402222802e-02  -2.1614212092474355e-02  -2.6987274887651784e-02  -2.6997028128717931e-02  -2.7082270599069602e-02  -2.7108018926409988e-02  -2.3169012844078112e-02  -9.6834424373420398e-03  -7.9524432637391729e-03  -1.9777452717579511e-02  -2.3770615723819642e-02  -2.4166536811842207e-02  -2.2970843587539952e-02  -2.5867348295492133e-02  -2.2576425711773283e-02  -2.2124214313011963e-02  -1.8576764302882173e-02  -1.7578199077710389e-02  -2.2284230741783886e-02  -1.7254355948437824e-02  -8.7925758322123706e-03  -8.8663790312288968e-03  -1.2210162577637032e-02  -2.0264905898969607e-02  -2.2086757760054015e-02  -1.8945573104279165e-02  -2.0149670738638874e-02  -1.8960440837264964e-02  -2.3248026083783294e-02  -2.3084232355765903e-02  -9.2308676466182800e-03  -2.3445117771057785e-02  -1.9394839785873991e-02  -2.0348956762516891e-02  -1.6202795721165744e-02  -2.2066404625487812e-02  -1.6421182757874877e-02  -1.2175737734592089e-02  -2.3508831377269373e-02  -7.6265285749892121e-03  -1.5445631798185979e-02  -2.5054294125232617e-02  -1.6826658716966775e-02  -1.9267665380018520e-02  -1.9807046810757567e-02  -9.5014443035993778e-03  -2.3408290930188758e-02  -2.1095430777511952e-02  -1.9111122291046421e-02  -7.3726668738341491e-03  -2.0613341311097790e-02  -1.9276256644598776e-02  -7.9354802144361667e-03  -1.5982346978891997e-02  -1.8943975814844787e-02  -7.4281974671113297e-03  -1.6260947649379937e-02  -2.1189768355701837e-02  -2.1679946044904527e-02  -1.8311568221864832e-02  -1.5321516594713114e-02  -1.9370690793105525e-02  -2.3903023057788412e-02  -1.6685678137999049e-02  -2.8254646121990183e-02  -2.8347518573585802e-02  -2.8237668315388122e-02  -2.8417002990367115e-02  -2.1174082672720040e-02  -2.3419018557368443e-02  -2.1146836405717240e-02  -2.2592016094403054e-02  -1.9747412332459878e-02  -1.5234032564409129e-02  -2.2860415032820425e-02  -2.1824616673306492e-02  -1.8350120775333049e-02  -1.4312706000396866e-02  -1.5623991270752513e-02  -1.3947828753467296e-02  -2.1732671629489150e-02  -1.4273296162184000e-02  -1.9502963694062708e-02  -1.3837488974618591e-02  -7.5506302081513200e-03  -1.8946482832516764e-02  -1.6123168605836426e-02  -1.7817580954478413e-02  -1.9277293461664281e-02  -1.5354512112923584e-02  -1.4419013380616501e-02  -8.6832127746054276e-03  -2.4213330079922636e-02  -3.1734127129213072e-02  -3.2107883063622951e-02  -3.4034844822816719e-02  -3.6518841893779803e-02  -3.4012904915451378e-02  -3.7119926490337699e-02  -3.2052338027060139e-02  -3.3707913187682730e-02  -3.2008146030893032e-02  -3.3780255646043374e-02  -3.6644240485062318e-02  -3.6420600847213019e-02  -1.6959964196386620e-02  -1.5092881119415003e-02  -1.8233663597951262e-02  -1.5723998042752714e-02  -3.2342352666838575e-02  -3.5865805331999061e-02  -3.6014711066794436e-02  -3.2351654238111351e-02  -4.0806941021166797e-02  -4.6085024962351964e-02  -3.2934474190404517e-02  -3.2822192352834428e-02  -3.7679192702594969e-02  -4.7480081003052399e-02  -4.9922653828574852e-02  -4.9646726526433059e-02  -5.1415015859156261e-02  -5.1543380590867278e-02  -1.7459002096487954e-02  -1.6953550822807154e-02  -1.7465462601732273e-02  -1.6947808037811141e-02  -1.7412653754553146e-02  -1.6951148919920882e-02  -1.8004011196590626e-02  -5.1331710752315136e-02  -5.1639937856541980e-02  -4.9723142432586742e-02  -4.8055358175202990e-02  -1.9122748641194950e-02  -1.8449530361631754e-02  -1.7686946181625120e-02  -1.7246017533341648e-02  -1.8704839202474208e-02  -1.7586043330220215e-02  -2.0284249311121393e-02  -1.5955949194412893e-02  -4.8146953974250201e-02  -4.7070033023522619e-02  -1.7903148435556442e-02  -1.6076964262380051e-02  -1.7930982324100533e-02  -4.1114189561811204e-02  -4.5866510741286753e-02  -4.8226391126387602e-02  -5.0328651121444877e-02  -5.1235965071246670e-02  -5.1486796861167576e-02  -5.0812598670900572e-02  -5.1250560644614446e-02  -5.1243441711319525e-02  -4.9732136114278458e-02  -4.1029252853868034e-02  -4.6100540528262089e-02  -4.8249315886056639e-02  -5.0356285207728439e-02  -4.9114701651356993e-02  -5.1293002654546817e-02  -5.1563483883289754e-02  -5.1469053967923555e-02  -5.1370404521136649e-02  -5.0083834908631157e-02  -3.4227275505279528e-02  -4.0876559273519346e-02  -4.6154266510500551e-02  -4.7582698112504922e-02  -5.0105705164796531e-02  -4.9804450485124253e-02  -5.1595993573782709e-02  -5.1733405970533289e-02  -5.1587314642734722e-02  -5.1692708008942739e-02  -3.1685541710993220e-02  -3.2095397112524807e-02  -3.3610377656938452e-02  -3.3657487409516622e-02  -5.0821783891315440e-02  -4.9919689583654572e-02  -4.9868793585440295e-02  -4.9766363712956709e-02  -4.9659084100562557e-02  -5.0005700795830520e-02  -1.8075079541718667e-02  -4.9407738505955430e-02  -5.1241798898957469e-02  -4.9468092810620305e-02  -4.9126517072956670e-02  -5.0649396781494563e-02  -5.0374597983836228e-02  -3.4216279946925270e-02  -4.6070676501763615e-02  -4.6046975246436000e-02  -1.4822181044232432e-02  -1.3818033955041314e-02  -1.4833932717322003e-02  -4.5268489135366768e-02  -4.6101539995127519e-02  -4.4266451891102676e-02  -4.3572301194658491e-02  -4.7848991797891288e-02  -4.9501091821182272e-02  -4.7413668063956887e-02  -4.8975032781956668e-02  -4.6019666503851912e-02  -4.8876324770286625e-02  -4.5319871564816726e-02  -4.7718478711863070e-02  -4.4188289427233282e-02  -4.5843066633018140e-02  -4.6032830045791007e-02  -4.8725594369860209e-02  -4.5220871458656317e-02  -4.7348717916201051e-02  -4.4041551445634104e-02  -4.5862149683450308e-02  -4.2829983934205410e-02  -4.4614717261234949e-02  -4.1887016807294723e-02  -4.3761266233070709e-02  -4.1228926695615419e-02  -4.3372462715065556e-02  -4.0938059297559538e-02  -4.3514745783623583e-02  -4.2804904601017005e-02  -4.4491067286412840e-02  -4.1760646088939743e-02  -4.3592479478254363e-02  -4.1055551748877837e-02  -4.3183212541224453e-02  -4.0714779719237849e-02  -4.3332780713329563e-02  -4.5557140396200201e-02  -4.5375060127763288e-02  -4.9078095123157937e-02  -4.8899404875289078e-02  -4.5247608452728939e-02  -4.4798747402551076e-02  -4.1339328241486201e-02  -4.4202903587732705e-02  -4.1987475585655347e-02  -4.5223434980461080e-02  -4.2727879958881679e-02  -4.1091578982921741e-02  -4.3976836770980784e-02  -4.1650358136780620e-02  -4.4942068407359828e-02  -4.2334504304470236e-02  -4.9974492935370013e-02  -4.6691828662132492e-02  -4.5904182776901739e-02  -4.4461349008767310e-02  -4.5796400043781729e-02  -4.4602928240899418e-02  -4.5970667132324006e-02  -4.2724625767047684e-02  -3.9578155295146841e-02  -4.2969511144873088e-02  -3.9621065857280383e-02  -4.3409958792190860e-02  -3.5854939593284091e-02  -4.3550945063775680e-02  -4.4698075265427288e-02  -4.0972227350553080e-02  -3.9679237478065184e-02  -3.5669242343931817e-02  -4.4531836506004834e-02  -4.0030681703267616e-02  -4.5978192417367711e-02  -3.9065484772741417e-02  -4.6087900391209823e-02  -3.7838715737056598e-02  -3.7969231949967513e-02  -3.7090413174021016e-02  -4.3122026024618801e-02  -3.8479998766076315e-02  -4.2858602992780923e-02  -3.0701202533918625e-02  -5.0025533533672985e-02  -1.1705751566378092e-02  -4.5801088339871718e-02  -5.0055721909285235e-02  -3.7757615731097899e-02  -3.6880932787939628e-02  -4.1564094001007315e-02  -3.7739632446431713e-02  -4.5583224186320742e-02  -4.5548373907360447e-02  -4.4766124014464274e-02  -4.8197309928647070e-02  -4.6378653163181384e-02  -4.7291721109060873e-02  -4.5803671321966805e-02  -4.3961050259249707e-02  -4.2912901277216052e-02  -4.5915019181153982e-02  -4.4219797464957196e-02  -4.1871444374617005e-02  -4.2616962684479030e-02  -4.0914010633320126e-02  -4.1671424621530929e-02  -4.0505344332913487e-02  -4.1157216280620565e-02  -4.0549950281006060e-02  -4.1079027678039871e-02  -3.7780178318539061e-02  -4.2459891664640238e-02  -4.3257474049940223e-02  -4.2141163279572909e-02  -3.1043623212379225e-02  -4.0973983541808111e-02  -3.7699772113303373e-02  -3.8519399871983322e-02  -3.6358924058675607e-02  -1.0676422345559055e-02  -1.2450676500866197e-02  -1.1784625107723526e-02  -4.5011020921223659e-02  -3.8746657043652516e-02  -4.8788621190845864e-02  -4.3657883401112874e-02  -4.6761901704700119e-02  -3.2602376049326587e-02  -3.3290356709368703e-02  -3.4202173303463188e-02  -3.9804901514162029e-02  -4.3297489392114787e-02  -4.6298951537009900e-02  -4.4592565473866766e-02  -3.9855796359359069e-02  -4.2361631434203711e-02  -4.2973920633913323e-02  -4.2215737821550622e-02  -4.0369194991449843e-02  -4.1470612484704940e-02  -3.8002555832118812e-02  -4.0576051252455905e-02  -4.0985619642673721e-02  -4.1441852474283572e-02  -3.9581624384541721e-02  -4.2002642849225336e-02  -3.8443209878674521e-02  -4.2168697362789186e-02  -4.2656851331211040e-02  -4.4097674352262292e-02  -4.2104766430877419e-02  -4.5577271394329266e-02  -4.1432601566181428e-02  -4.6478124710081115e-02  -3.9817658275686549e-02  -4.4917214179022572e-02  -4.2387452407614490e-02  -4.4279666561064399e-02  -4.1534835932289377e-02  -4.8877191022694839e-02  -4.7382797280893792e-02  -3.7104626136755914e-02  -3.4414576627833496e-02  -4.2411448216496464e-02  -4.1567758240283803e-02  -4.7489590565843336e-02  -4.0103259841940131e-02  -4.7400300724775087e-02  -3.6230304058008402e-02  -3.8586006536857662e-02  -4.1484342484420476e-02  -4.7017119307752160e-02  -3.5337386147447920e-02  -4.2018404880713657e-02  -3.9394980224028875e-02  -3.6429198653738080e-02  -3.6618519778443437e-02  -3.8572947544676751e-02  -4.2291042543332567e-02  -3.7531902650094241e-02  -4.0721235817911615e-02  -3.97150752347