<?xml version="1.0"?>
<VTKFile type="UnstructuredGrid"  version="0.1"  >
<UnstructuredGrid>
<Piece  NumberOfPoints="1297" NumberOfCells="2496">
<Points>
<DataArray  type="Float64"  NumberOfComponents="3"  format="ascii">0 0 0  0 1 0  1 1 0  1 0 0  1.1 -0.1 0  -0.1 -0.1 0  1.1 1.1 0  -0.1 1.1 0  0.3038558481132799 0.6601814727217291 0  0.3045431119539932 0.3403324834803708 0  0.6972075410392135 0.3393124201426694 0  0.6972337695601935 0.6609783128286872 0  0.5005380176895066 0.5001787771937543 0  0 0.9499999999997918 0  0 0.8999999999995836 0  0 0.8499999999996529 0  0 0.7999999999999998 0  0 0.7500000000003466 0  0 0.7000000000006934 0  0 0.6500000000010401 0  0 0.6000000000013869 0  0 0.5500000000017335 0  0 0.5000000000020587 0  0 0.4500000000018723 0  0 0.4000000000016644 0  0 0.3500000000014564 0  0 0.3000000000012483 0  0 0.2500000000010403 0  0 0.2000000000008322 0  0 0.1500000000006241 0  0 0.100000000000416 0  0 0.05000000000020799 0  0.04999999999989965 0 0  0.09999999999981467 0 0  0.1499999999997036 0 0  0.1999999999995579 0 0  0.2499999999994121 0 0  0.2999999999992664 0 0  0.3499999999991206 0 0  0.3999999999989749 0 0  0.4499999999988292 0 0  0.4999999999986943 0 0  0.5499999999988151 0 0  0.5999999999989468 0 0  0.6499999999990784 0 0  0.69999999999921 0 0  0.7499999999993417 0 0  0.7999999999994734 0 0  0.8499999999996051 0 0  0.8999999999997368 0 0  0.9499999999998684 0 0  1 0.04999999999989965 0  1 0.09999999999981467 0  1 0.1499999999997036 0  1 0.1999999999995579 0  1 0.2499999999994121 0  1 0.2999999999992664 0  1 0.3499999999991206 0  1 0.3999999999989749 0  1 0.4499999999988292 0  1 0.4999999999986943 0  1 0.5499999999988151 0  1 0.5999999999989468 0  1 0.6499999999990784 0  1 0.69999999999921 0  1 0.7499999999993417 0  1 0.7999999999994734 0  1 0.8499999999996051 0  1 0.8999999999997368 0  1 0.9499999999998684 0  0.9499999999997918 1 0  0.8999999999995836 1 0  0.8499999999996529 1 0  0.7999999999999998 1 0  0.7500000000003466 1 0  0.7000000000006934 1 0  0.6500000000010401 1 0  0.6000000000013869 1 0  0.5500000000017335 1 0  0.5000000000020587 1 0  0.4500000000018723 1 0  0.4000000000016644 1 0  0.3500000000014564 1 0  0.3000000000012483 1 0  0.2500000000010403 1 0  0.2000000000008322 1 0  0.1500000000006241 1 0  0.100000000000416 1 0  0.05000000000020799 1 0  -0.1 1.05000000000004 0  -0.1 1.000000000000079 0  -0.1 0.9500000000001624 0  -0.1 0.9000000000003032 0  -0.1 0.850000000000444 0  -0.1 0.8000000000005848 0  -0.1 0.7500000000007256 0  -0.1 0.7000000000008665 0  -0.1 0.6500000000010508 0  -0.1 0.6000000000012352 0  -0.1 0.5500000000014196 0  -0.1 0.500000000001539 0  -0.1 0.4500000000014195 0  -0.1 0.4000000000013 0  -0.1 0.3500000000011588 0  -0.1 0.3000000000010178 0  -0.1 0.2500000000008986 0  -0.1 0.2000000000007579 0  -0.1 0.1500000000006174 0  -0.1 0.1000000000005272 0  -0.1 0.05000000000040083 0  -0.1 2.671196597248127e-13 0  -0.1 -0.0499999999998666 0  -0.0500000000000906 -0.1 0  -1.730560139634463e-13 -0.1 0  0.04999999999975802 -0.1 0  0.09999999999961506 -0.1 0  0.1499999999994613 -0.1 0  0.199999999999302 -0.1 0  0.2499999999991446 -0.1 0  0.2999999999990088 -0.1 0  0.3499999999988296 -0.1 0  0.3999999999986936 -0.1 0  0.4499999999985143 -0.1 0  0.4999999999984002 -0.1 0  0.5499999999985247 -0.1 0  0.5999999999986493 -0.1 0  0.6499999999987955 -0.1 0  0.6999999999989417 -0.1 0  0.7499999999990659 -0.1 0  0.7999999999992116 -0.1 0  0.8499999999993573 -0.1 0  0.8999999999994526 -0.1 0  0.949999999999584 -0.1 0  0.9999999999997226 -0.1 0  1.049999999999861 -0.1 0  1.1 -0.0500000000000906 0  1.1 -1.730560139634463e-13 0  1.1 0.04999999999975802 0  1.1 0.09999999999961506 0  1.1 0.1499999999994613 0  1.1 0.199999999999302 0  1.1 0.2499999999991446 0  1.1 0.2999999999990088 0  1.1 0.3499999999988296 0  1.1 0.3999999999986936 0  1.1 0.4499999999985143 0  1.1 0.4999999999984002 0  1.1 0.5499999999985247 0  1.1 0.5999999999986493 0  1.1 0.6499999999987955 0  1.1 0.6999999999989417 0  1.1 0.7499999999990659 0  1.1 0.7999999999992116 0  1.1 0.8499999999993573 0  1.1 0.8999999999994526 0  1.1 0.949999999999584 0  1.1 0.9999999999997226 0  1.1 1.049999999999861 0  1.05000000000004 1.1 0  1.000000000000079 1.1 0  0.9500000000001624 1.1 0  0.9000000000003032 1.1 0  0.850000000000444 1.1 0  0.8000000000005848 1.1 0  0.7500000000007256 1.1 0  0.7000000000008665 1.1 0  0.6500000000010508 1.1 0  0.6000000000012352 1.1 0  0.5500000000014196 1.1 0  0.500000000001539 1.1 0  0.4500000000014195 1.1 0  0.4000000000013 1.1 0  0.3500000000011588 1.1 0  0.3000000000010178 1.1 0  0.2500000000008986 1.1 0  0.2000000000007579 1.1 0  0.1500000000006174 1.1 0  0.1000000000005272 1.1 0  0.05000000000040083 1.1 0  2.671196597248127e-13 1.1 0  -0.0499999999998666 1.1 0  0.2942122198199681 0.6477555161534617 0  0.2839124619812513 0.6313065497057663 0  0.2746731458802576 0.6124821695438961 0  0.2669376680195782 0.5917579246897269 0  0.2609244473701188 0.5697949600974542 0  0.2566600403248513 0.5469603196604133 0  0.254133062811174 0.5235979354393524 0  0.2533421980383314 0.5000464153476266 0  0.2542620294408318 0.4764440664610802 0  0.256910905969607 0.453088364051529 0  0.2613113394633045 0.4303027588674795 0  0.2674541163256773 0.4084033384542728 0  0.27530805477124 0.3877757224652051 0  0.284644888186741 0.368999113116679 0  0.2949775341363353 0.352634475286265 0  0.3153107294340883 0.3290136497964335 0  0.3296358729264117 0.3166577461555184 0  0.3465438943859755 0.3048364855804221 0  0.365437637300885 0.2941831173970159 0  0.3858844147028611 0.2849871340049757 0  0.4075041749507109 0.277385632067786 0  0.4299819730567132 0.2714325455365235 0  0.4530753141394052 0.2671287726348237 0  0.4765777559611939 0.264495143979187 0  0.5002706866757894 0.2635410201392407 0  0.5239900995403161 0.2642674248425145 0  0.5475405620664311 0.2666742031052315 0  0.5707229678776242 0.2707635622641586 0  0.593295019189786 0.2765365668588697 0  0.615032035422528 0.2839778728714633 0  0.6356382754008494 0.2930460944969616 0  0.6547189952484379 0.3036419640209866 0  0.6718272175697756 0.315477495881772 0  0.6862792546497425 0.3278659229185274 0  0.7069727124732829 0.3518657500785974 0  0.7172700901363624 0.3682655034405357 0  0.7266125309026791 0.3872381173948029 0  0.7344287048021764 0.4080834656764668 0  0.7405018966647802 0.4301444127363921 0  0.7448126236385155 0.4530274727786535 0  0.7473882765896916 0.4764294208826613 0  0.7482504161628686 0.5000878886752234 0  0.7474032536339352 0.5237576037851636 0  0.7448367819161653 0.5472157366804061 0  0.7405409648163193 0.570103005955626 0  0.7344612459842766 0.5921797521230616 0  0.726675147675949 0.6129840506427353 0  0.7173376902178761 0.6319727090127076 0  0.7070338061797488 0.6483869504929783 0  0.6862942895245133 0.6724424135097922 0  0.6718050591171761 0.6848700088957053 0  0.6547255199027955 0.6967181037730744 0  0.6356656203642059 0.7073208715446452 0  0.6150815309916844 0.7164048883686819 0  0.5933483057299385 0.7238662334536397 0  0.5707506329201248 0.7296748926968964 0  0.5475613978484337 0.7337910840704647 0  0.5239999967676533 0.7362219257590444 0  0.5002625841164665 0.7369733336298412 0  0.4765461905078195 0.7360485580272178 0  0.4530378369501703 0.7334484131333423 0  0.4299111484239245 0.7291829199177982 0  0.4073772117380403 0.7232582390487993 0  0.3857098914038581 0.7157031618376035 0  0.3651667540463565 0.7065213889612739 0  0.3461459778845852 0.6958489597253972 0  0.3291247252642803 0.6839907105870499 0  0.3146949108549764 0.6715727846899242 0  0.376914203395069 0.3152005645876583 0  0.2829842267649483 0.4415738379703903 0  0.3767213396094001 0.6853786284985414 0  0.2826954648245594 0.5585767480700913 0  0.7161210260201761 0.5810576402066014 0  0.6030367789510218 0.6942761133349367 0  0.6232663852738533 0.313570735057827 0  0.7202431301861815 0.4407060072648552 0  0.7237489842588057 0.5113535993390191 0  0.5577180861345967 0.2952151000813924 0  0.4433544292113898 0.2979907279979661 0  0.4419505388825568 0.7028455732740869 0  0.5352976243697797 0.7067666208324662 0  0.2784459864417723 0.4882510447028805 0  0.2913691007894997 0.3973375165906244 0  0.4888759402862554 0.2960664189069583 0  0.2961796730490093 0.6014539399934201 0  0.7044507722490383 0.3949684204785662 0  0.4886452130645688 0.7080509326953973 0  0.6444009662517053 0.6782512038574853 0  0.3379278876740751 0.3344448228603058 0  0.6637085933395881 0.3349577426763713 0  0.3380115552741416 0.6684628408904909 0  0.7009672855739791 0.6252266711384964 0  0.3063392654080145 0.3582185111679336 0  0.3074771966492007 0.6413059863302246 0  0.6803006210108036 0.6603632879724177 0  0.6958333077935011 0.3571178889312409 0  0.3566936889738598 0.6771972280008782 0  0.366967261704653 0.6582893981305267 0  0.3877419751021672 0.6640374258834028 0  0.3766305409678707 0.6376904662358284 0  0.3989081932761962 0.6419716919526052 0  0.3862206390013836 0.6136569273727646 0  0.4134477301087829 0.6170926501734956 0  0.3977018717980969 0.5839473933010887 0  0.3597602313779353 0.609148434477179 0  0.4313170209162522 0.5859178508746368 0  0.4115674094122824 0.5486494876637878 0  0.3720408111099245 0.5530160853352494 0  0.3886522133552559 0.5144016879614761 0  0.3508403939776431 0.5162110482157327 0  0.3640485177731034 0.4820648938296846 0  0.4037104270783976 0.4764690775368502 0  0.3829715396945275 0.444122664996491 0  0.4187223114176651 0.4377117519117414 0  0.3989611779409082 0.4070767343798345 0  0.431446009571822 0.393276265227479 0  0.3655734988291332 0.4104854798517467 0  0.407692845849432 0.3728607721501931 0  0.440216777932755 0.6211965631242586 0  0.4658415352620254 0.5952711902116493 0  0.4841190413595184 0.6234949688262278 0  0.50264229937559 0.5974028096154227 0  0.5202498529042506 0.6237330837563662 0  0.5385675060631633 0.5974442910855202 0  0.5557970738456692 0.6232653100396842 0  0.5738655163679096 0.5972517828610541 0  0.5913744766377022 0.6246325865529965 0  0.6085210232450636 0.5896174480609252 0  0.592941996739
[...]
<PointData  Scalars="state"> 
<DataArray  type="Float64"  Name="state"  format="ascii">0.0000000000000000e+00  0.0000000000000000e+00  0.0000000000000000e+00  0.0000000000000000e+00  0.0000000000000000e+00  0.0000000000000000e+00  0.0000000000000000e+00  0.0000000000000000e+00  -3.1323594681247353e-02  -3.1286723632484581e-02  -3.1465864307704074e-02  -3.1486410120774931e-02  -6.9055108505610236e-03  0.0000000000000000e+00  0.0000000000000000e+00  0.0000000000000000e+00  0.0000000000000000e+00  0.0000000000000000e+00  0.0000000000000000e+00  0.0000000000000000e+00  0.0000000000000000e+00  0.0000000000000000e+00  0.0000000000000000e+00  0.0000000000000000e+00  0.0000000000000000e+00  0.0000000000000000e+00  0.0000000000000000e+00  0.0000000000000000e+00  0.0000000000000000e+00  0.0000000000000000e+00  0.0000000000000000e+00  0.0000000000000000e+00  0.0000000000000000e+00  0.0000000000000000e+00  0.0000000000000000e+00  0.0000000000000000e+00  0.0000000000000000e+00  0.0000000000000000e+00  0.0000000000000000e+00  0.0000000000000000e+00  0.0000000000000000e+00  0.0000000000000000e+00  0.0000000000000000e+00  0.0000000000000000e+00  0.0000000000000000e+00  0.0000000000000000e+00  0.0000000000000000e+00  0.0000000000000000e+00  0.0000000000000000e+00  0.0000000000000000e+00  0.0000000000000000e+00  0.0000000000000000e+00  0.0000000000000000e+00  0.0000000000000000e+00  0.0000000000000000e+00  0.0000000000000000e+00  0.0000000000000000e+00  0.0000000000000000e+00  0.0000000000000000e+00  0.0000000000000000e+00  0.0000000000000000e+00  0.0000000000000000e+00  0.0000000000000000e+00  0.0000000000000000e+00  0.0000000000000000e+00  0.0000000000000000e+00  0.0000000000000000e+00  0.0000000000000000e+00  0.0000000000000000e+00  0.0000000000000000e+00  0.0000000000000000e+00  0.0000000000000000e+00  0.0000000000000000e+00  0.0000000000000000e+00  0.0000000000000000e+00  0.0000000000000000e+00  0.0000000000000000e+00  0.0000000000000000e+00  0.0000000000000000e+00  0.0000000000000000e+00  0.0000000000000000e+00  0.0000000000000000e+00  0.0000000000000000e+00  0.0000000000000000e+00  0.0000000000000000e+00  0.0000000000000000e+00  0.0000000000000000e+00  0.0000000000000000e+00  0.0000000000000000e+00  0.0000000000000000e+00  0.0000000000000000e+00  0.0000000000000000e+00  0.0000000000000000e+00  0.0000000000000000e+00  0.0000000000000000e+00  0.0000000000000000e+00  0.0000000000000000e+00  0.0000000000000000e+00  0.0000000000000000e+00  0.0000000000000000e+00  0.0000000000000000e+00  0.0000000000000000e+00  0.0000000000000000e+00  0.0000000000000000e+00  0.0000000000000000e+00  0.0000000000000000e+00  0.0000000000000000e+00  0.0000000000000000e+00  0.0000000000000000e+00  0.0000000000000000e+00  0.0000000000000000e+00  0.0000000000000000e+00  0.0000000000000000e+00  0.0000000000000000e+00  0.0000000000000000e+00  0.0000000000000000e+00  0.0000000000000000e+00  0.0000000000000000e+00  0.0000000000000000e+00  0.0000000000000000e+00  0.0000000000000000e+00  0.0000000000000000e+00  0.0000000000000000e+00  0.0000000000000000e+00  0.0000000000000000e+00  0.0000000000000000e+00  0.0000000000000000e+00  0.0000000000000000e+00  0.0000000000000000e+00  0.0000000000000000e+00  0.0000000000000000e+00  0.0000000000000000e+00  0.0000000000000000e+00  0.0000000000000000e+00  0.0000000000000000e+00  0.0000000000000000e+00  0.0000000000000000e+00  0.0000000000000000e+00  0.0000000000000000e+00  0.0000000000000000e+00  0.0000000000000000e+00  0.0000000000000000e+00  0.0000000000000000e+00  0.0000000000000000e+00  0.0000000000000000e+00  0.0000000000000000e+00  0.0000000000000000e+00  0.0000000000000000e+00  0.0000000000000000e+00  0.0000000000000000e+00  0.0000000000000000e+00  0.0000000000000000e+00  0.0000000000000000e+00  0.0000000000000000e+00  0.0000000000000000e+00  0.0000000000000000e+00  0.0000000000000000e+00  0.0000000000000000e+00  0.0000000000000000e+00  0.0000000000000000e+00  0.0000000000000000e+00  0.0000000000000000e+00  0.0000000000000000e+00  0.0000000000000000e+00  0.0000000000000000e+00  0.0000000000000000e+00  0.0000000000000000e+00  0.0000000000000000e+00  0.0000000000000000e+00  0.0000000000000000e+00  0.0000000000000000e+00  0.0000000000000000e+00  0.0000000000000000e+00  0.0000000000000000e+00  0.0000000000000000e+00  0.0000000000000000e+00  0.0000000000000000e+00  0.0000000000000000e+00  0.0000000000000000e+00  0.0000000000000000e+00  0.0000000000000000e+00  -3.0507028113178267e-02  -2.9993139149265418e-02  -2.9373499733545683e-02  -2.8729498046636506e-02  -2.8180294654277412e-02  -2.7758130650320661e-02  -2.7448674044037544e-02  -2.7461152693306262e-02  -2.7507173659748210e-02  -2.7808468902223712e-02  -2.8242093048702444e-02  -2.8756871797011002e-02  -2.9278560108092620e-02  -2.9857440845505203e-02  -3.0382927693496205e-02  -3.0810597081975560e-02  -3.0453699009351590e-02  -3.0071969754369189e-02  -2.9669174892041968e-02  -2.9274017991900589e-02  -2.8806010869397818e-02  -2.8379111434366371e-02  -2.8102276466169415e-02  -2.7866285277131645e-02  -2.7802919777847494e-02  -2.7871003955867463e-02  -2.8086611178024082e-02  -2.8427042053866310e-02  -2.8825776593784873e-02  -2.9366660659678689e-02  -2.9864197683310941e-02  -3.0258663823877457e-02  -3.0640975759230853e-02  -3.0981163367219091e-02  -3.0726437710172499e-02  -3.0102236001020088e-02  -2.9479837591634396e-02  -2.8811699117546087e-02  -2.8257508876769311e-02  -2.7824138823676958e-02  -2.7573190943046427e-02  -2.7461419876734557e-02  -2.7559655033479027e-02  -2.7888789090543036e-02  -2.8318804534229153e-02  -2.8832494481489401e-02  -2.9526111329715402e-02  -3.0159649088079214e-02  -3.0780479321636696e-02  -3.0967219632009230e-02  -3.0616431769557684e-02  -3.0283654856246605e-02  -2.9864314589492361e-02  -2.9355728751605858e-02  -2.8792257448852866e-02  -2.8394229980617917e-02  -2.8013933448482325e-02  -2.7778576239613873e-02  -2.7733052957476492e-02  -2.7829751227411912e-02  -2.8032893324995974e-02  -2.8272408322605708e-02  -2.8715390485909813e-02  -2.9207517911295094e-02  -2.9632929190827103e-02  -3.0080461038961174e-02  -3.0481441037339189e-02  -3.0830235891255754e-02  -2.4237322732434393e-02  -2.3202358456457836e-02  -2.4221060946806736e-02  -2.3196576655599162e-02  -2.4233700346152305e-02  -2.3768551067409251e-02  -2.4376741777688914e-02  -2.3467902925198725e-02  -2.2668380547426696e-02  -2.2774924493299788e-02  -2.2374856281938874e-02  -2.2379891155811932e-02  -2.2171133624763792e-02  -2.2573349430433445e-02  -2.4929268938862541e-02  -2.1425363626538008e-02  -2.3998508290334397e-02  -2.4304400389994107e-02  -2.1957330373047507e-02  -2.5240297490635753e-02  -2.5748261419959031e-02  -2.5648005285603362e-02  -2.6035705548868963e-02  -2.5873024211261513e-02  -2.7051586257272338e-02  -2.6548675274321719e-02  -2.7360432691865950e-02  -2.7267569252203961e-02  -2.5057170948326865e-02  -2.1779135859516650e-02  -2.0724050739434736e-02  -1.8977760639310101e-02  -1.7766785909003317e-02  -1.6199264369585915e-02  -1.4704429790581413e-02  -1.3269540424981146e-02  -1.7925494615541555e-02  -1.1436831477472913e-02  -1.0518360578580412e-02  -1.3571733290397755e-02  -1.1211352746439824e-02  -1.4534304579253345e-02  -1.3356570402108223e-02  -1.0319378885533864e-02  -1.2794211449517248e-02  -1.0724520782441268e-02  -1.3826803142266789e-02  -1.3006928410850466e-02  -1.6179374988884866e-02  -1.6099722849647495e-02  -1.3748323093299110e-02  -1.0865591884857221e-02  -1.2895550402337485e-02  -1.0662779206519386e-02  -1.3014727318649829e-02  -1.1174843543697877e-02  -1.3843479755331962e-02  -1.2456869501691141e-02  -1.5561081389400395e-02  -1.3947925254682874e-02  -1.1043611197294217e-02  -1.3565382874170043e-02  -1.1138199570279499e-02  -1.6456747212746727e-02  -1.6743258677308717e-02  -1.7408611534282345e-02  -1.6714961406804531e-02  -1.6620569249287839e-02  -1.7855463395335770e-02  -1.5423345804579448e-02  -1.2597966864028138e-02  -1.9827126238577387e-02  -1.8154107541596905e-02  -1.6240065278478960e-02  -1.6993872633066238e-02  -1.5737419109796320e-02  -1.2161565617562261e-02  -1.6050048155774935e-02  -1.3061595658202448e-02  -9.7416271122991276e-03  -1.1681483941479553e-02  -1.4519378445799301e-02  -1.4038959930238329e-02  -1.0464302343553767e-02  -1.3615753140846723e-02  -1.6400577161539899e-02  -1.6492818683961651e-02  -1.4681846995392355e-02  -1.8836941799833737e-02  -1.9397327666445582e-02  -2.1304640858482264e-02  -2.1362965139926884e-02  -9.0253386928479968e-03  -1.9473139582402765e-02  -1.9336007373048591e-02  -1.9912636426302546e-02  -1.8072809102523790e-02  -2.1631945215594507e-02  -2.1969074179452531e-02  -2.0413092650913935e-02  -1.6373006295365936e-02  -1.8993784712238847e-02  -2.0751783220322333e-02  -1.8113660015384114e-02  -1.6083506710720129e-02  -1.8508778046062425e-02  -1.9140737813631101e-02  -1.6407155119665860e-02  -1.8709526663798621e-02  -2.0929554521510668e-02  -2.1478234117047117e-02  -2.0234117569931886e-02  -2.0037660420433537e-02  -1.8980850467411218e-02  -2.1203659648268158e-02  -1.6791107318891763e-02  -8.4324737834725987e-03  -2.1093334019711547e-02  -8.4799814895490117e-03  -1.4307822523808272e-02  -1.7498299327543002e-02  -1.4846262001740957e-02  -1.7651129572768577e-02  -1.9898033499295194e-02  -2.0450370200513261e-02  -1.8778947742303563e-02  -1.6946106110463450e-02  -1.8630807563968753e-02  -1.9186599932578881e-02  -1.0095037099768490e-02  -2.3223219475096219e-02  -2.3603064129936988e-02  -1.7327042792241322e-02  -1.9786834430969277e-02  -1.9265770011832269e-02  -1.7555878469807575e-02  -1.8478590845488019e-02  -2.0957940904810107e-02  -1.9203579304209371e-02  -2.0923343814975154e-02  -2.1305070593748740e-02  -2.2767010908752144e-02  -2.4353825911307896e-02  -2.4925756133481355e-02  -1.9846992184147958e-02  -2.1976947825624253e-02  -2.2191797720565322e-02  -2.2691014911220810e-02  -2.4691982533033893e-02  -2.5735110933634297e-02  -2.2835961046345003e-02  -1.9261440590448396e-02  -1.6884092775125276e-02  -2.4270216044634450e-02  -2.3469557866197047e-02  -2.2345145171830835e-02  -2.5278675003823036e-02  -2.2095577848998869e-02  -2.1974059794433422e-02  -2.3704401882545606e-02  -2.5717038183695019e-02  -2.2897233502711369e-02  -2.2159032454745150e-02  -2.3856037415680442e-02  -2.1011258503732422e-02  -2.3106510177181183e-02  -2.0404993741553999e-02  -2.2656415849495251e-02  -2.4621845217479912e-02  -2.6161328015924450e-02  -2.4664281899871320e-02  -2.1410376478215205e-02  -1.8061373389347327e-02  -2.3152767677461009e-02  -2.3691280532806922e-02  -2.1683660154036818e-02  -2.7195786512502703e-02  -2.7206395654056578e-02  -2.7282476044348716e-02  -2.7322982024972936e-02  -2.3116903419749354e-02  -9.6915891422287449e-03  -7.9633033872660991e-03  -1.9711630204137798e-02  -2.3759091784743391e-02  -2.4160472039876115e-02  -2.3052167501733407e-02  -2.6010761772684972e-02  -2.2495767091076122e-02  -2.2202825684272239e-02  -1.8539801639318742e-02  -1.7582187699407580e-02  -2.2195822765020704e-02  -1.7202563991547334e-02  -8.7922069821144682e-03  -8.8730109747723052e-03  -1.2205547393596292e-02  -2.0333087250282288e-02  -2.2163108353423333e-02  -1.8905090116918821e-02  -2.0160429952223214e-02  -1.8932583002511695e-02  -2.3120142095043889e-02  -2.2969783484911091e-02  -9.2394963237344297e-03  -2.3547587278800419e-02  -1.9363824051016550e-02  -2.0364060726265832e-02  -1.6216888227724855e-02  -2.2093239838303622e-02  -1.6418003648755747e-02  -1.2163829820276426e-02  -2.3410562828108009e-02  -7.6350784000301496e-03  -1.5458939352814036e-02  -2.5211354784476850e-02  -1.6822798848793438e-02  -1.9234853142942997e-02  -1.9793454847538215e-02  -9.5118418541564366e-03  -2.3311309104123702e-02  -2.1135914859076992e-02  -1.9064837520907641e-02  -7.3795127874233353e-03  -2.0581026961552847e-02  -1.9324358338086815e-02  -7.9459150305895478e-03  -1.5962744083836598e-02  -1.8901548109007717e-02  -7.4342255515148009e-03  -1.6245214444112938e-02  -2.1169047665838082e-02  -2.1724002446780237e-02  -1.8343829612327535e-02  -1.5313127355833109e-02  -1.9349898405348585e-02  -2.3797330220419483e-02  -1.6683785702402136e-02  -2.8497889288833428e-02  -2.8596376606460121e-02  -2.8483994086647542e-02  -2.8664588436858034e-02  -2.1224807556632787e-02  -2.3534120919899280e-02  -2.1100553556666683e-02  -2.2628433420444998e-02  -1.9726391936557768e-02  -1.5247226089409786e-02  -2.2967252562058279e-02  -2.1890636746056420e-02  -1.8393506635320068e-02  -1.4317151491954930e-02  -1.5616851222441669e-02  -1.3948840304021042e-02  -2.1724865116815498e-02  -1.4276497199680752e-02  -1.9514627010932685e-02  -1.3823971400917659e-02  -7.5603106906912011e-03  -1.8931166127237904e-02  -1.6132334772056493e-02  -1.7832647795398282e-02  -1.9228121703127449e-02  -1.5318491581594977e-02  -1.4423725957859028e-02  -8.6857754332207038e-03  -2.4343213627485500e-02  -3.1735107868727332e-02  -3.2119445332940755e-02  -3.4086916501301641e-02  -3.6610350709791184e-02  -3.4067121108093783e-02  -3.7216334316495271e-02  -3.2056420683042347e-02  -3.3749672718033509e-02  -3.2011038933185812e-02  -3.3827752469841037e-02  -3.6741004763384537e-02  -3.6510909655905734e-02  -1.6965652108849313e-02  -1.5098999231276933e-02  -1.8238211195616159e-02  -1.5730207841444289e-02  -3.2178848820091789e-02  -3.5819422222735653e-02  -3.5975093856222544e-02  -3.2190609776120239e-02  -4.0767607055952268e-02  -4.5951266952710228e-02  -3.2798285820390703e-02  -3.2676615968207610e-02  -3.7641745870593227e-02  -4.7297915016039208e-02  -4.9753723501419399e-02  -4.9518773095128872e-02  -5.1273647253818867e-02  -5.1442773017051295e-02  -1.7620547153088671e-02  -1.7107303895044484e-02  -1.7623336365677894e-02  -1.7103046204196157e-02  -1.7348517089282603e-02  -1.6890454397838484e-02  -1.7940565381944856e-02  -5.1225294264902139e-02  -5.1584600128669521e-02  -4.9525556210484253e-02  -4.7840518148014058e-02  -1.9012984885314825e-02  -1.8352005616610125e-02  -1.7596434002677280e-02  -1.7149902393551620e-02  -1.8599529891270103e-02  -1.7489928121671505e-02  -2.0170490075573502e-02  -1.6032208709307980e-02  -4.7936853152582580e-02  -4.6842270075048029e-02  -1.7985674660295624e-02  -1.6152055016478255e-02  -1.8013229029593326e-02  -4.1128973978278027e-02  -4.5746528637151035e-02  -4.8135014307369516e-02  -5.0193734776930683e-02  -5.1145923845590330e-02  -5.1364014407710955e-02  -5.0649326324829054e-02  -5.1176024423552659e-02  -5.1208645911126657e-02  -4.9627709800480445e-02  -4.1052452827674786e-02  -4.5981403830536866e-02  -4.8161390017422992e-02  -5.0221014415698546e-02  -4.8944137925400859e-02  -5.1204576655617728e-02  -5.1437823853842927e-02  -5.1393617020653599e-02  -5.1338567615848658e-02  -4.9978927526785184e-02  -3.4156359717355742e-02  -4.0834178407069585e-02  -4.6018420022448478e-02  -4.7397794060305691e-02  -4.9933281881015923e-02  -4.9673252224597980e-02  -5.1452095168147367e-02  -5.1631021687086845e-02  -5.1477910778047371e-02  -5.1631324821152992e-02  -3.1515670707970400e-02  -3.1918047094736633e-02  -3.3497480014322643e-02  -3.3551271303712403e-02  -5.0646849144439496e-02  -4.9897247404477291e-02  -4.9899770836750013e-02  -4.9694078906600075e-02  -4.9636843079578580e-02  -5.0038209147709421e-02  -1.8026162018030617e-02  -4.9387892847820782e-02  -5.1242724611179465e-02  -4.9400443814216231e-02  -4.9111409742796389e-02  -5.0663561185573074e-02  -5.0232138817586709e-02  -3.4146978952014614e-02  -4.6096488397505603e-02  -4.6072589063089087e-02  -1.4794610156497402e-02  -1.3792280002980552e-02  -1.4807203921783380e-02  -4.5238257153963846e-02  -4.6078672166953237e-02  -4.4059019698625176e-02  -4.3349248671262941e-02  -4.7889823462046475e-02  -4.9581839059423899e-02  -4.7459916887697871e-02  -4.9064221186302263e-02  -4.6106001590466926e-02  -4.8978027054584559e-02  -4.5479199698458164e-02  -4.7903520140207198e-02  -4.4426588158800920e-02  -4.6122975598683606e-02  -4.6120244924095020e-02  -4.8837069716838218e-02  -4.5381363406555311e-02  -4.7545570675398725e-02  -4.4281221682661062e-02  -4.6144164115396513e-02  -4.3142560915088557e-02  -4.4971157481910627e-02  -4.2258778049906826e-02  -4.4171929393838641e-02  -4.1637041928229701e-02  -4.3807576131981656e-02  -4.1352292882421440e-02  -4.3940112084588680e-02  -4.3117692882529486e-02  -4.4848014110143691e-02  -4.2133774863886954e-02  -4.4004537267991507e-02  -4.1466178662483755e-02  -4.3621330182517126e-02  -4.1132681313975850e-02  -4.3763422185687482e-02  -4.5522112486213795e-02  -4.5300141940330857e-02  -4.8996791998028470e-02  -4.8827254236654294e-02  -4.5215913499067013e-02  -4.4727363932601988e-02  -4.1731761192744840e-02  -4.4587485340111331e-02  -4.2330452823319362e-02  -4.5543611167665997e-02  -4.3003614712953518e-02  -4.1489179376514237e-02  -4.4368256153598129e-02  -4.2000017605384174e-02  -4.5271047974888831e-02  -4.2621728252111538e-02  -4.9823554707916384e-02  -4.6573058747029598e-02  -4.5746134492354297e-02  -4.4804524469153818e-02  -4.6071627788404602e-02  -4.4938574070528203e-02  -4.6239625876563668e-02  -4.3142253128103575e-02  -3.9645393704503151e-02  -4.3384734427889780e-02  -3.9686795183602706e-02  -4.3774922190360714e-02  -3.6220842336718753e-02  -4.3915898488289501e-02  -4.4814806809378258e-02  -4.1033694059756376e-02  -3.9639426759990257e-02  -3.6037860758985345e-02  -4.4644315558166385e-02  -4.0094836538682885e-02  -4.6199974062823952e-02  -3.9028814825447483e-02  -4.6309692319760697e-02  -3.7648741664888803e-02  -3.7800057351181464e-02  -3.6893194973285005e-02  -4.2894826759466348e-02  -3.8413956352630223e-02  -4.2753903293784770e-02  -3.0667080022739615e-02  -5.0075457342507436e-02  -1.1699960758981416e-02  -4.5585859885718505e-02  -5.0099724639179527e-02  -3.8007794342570844e-02  -3.6683309543157468e-02  -4.1347944666687189e-02  -3.7989267161160932e-02  -4.5558180203365474e-02  -4.5529485347657918e-02  -4.4593946593117002e-02  -4.7979851009183831e-02  -4.6155950868586738e-02  -4.7062215120810831e-02  -4.5568221741874353e-02  -4.3738045921417258e-02  -4.2686156515661419e-02  -4.5703122345381000e-02  -4.3989907524371874e-02  -4.1650267989761888e-02  -4.2400560169143869e-02  -4.0703117739731925e-02  -4.1467540431051296e-02  -4.0302434230702067e-02  -4.0961236764774520e-02  -4.0431324204211430e-02  -4.0994125071804437e-02  -3.7715493948769996e-02  -4.2359074946963303e-02  -4.3036851893275496e-02  -4.1932395048613035e-02  -3.1010785509930899e-02  -4.0772205402202263e-02  -3.7696812925564448e-02  -3.8513039673372676e-02  -3.6168557774018964e-02  -1.0671022386308581e-02  -1.2443377332183994e-02  -1.1778129275949392e-02  -4.4866205661375808e-02  -3.8757182759799544e-02  -4.8593128155538172e-02  -4.3472158842626840e-02  -4.6537092051073925e-02  -3.2522261644249061e-02  -3.3235961216768681e-02  -3.4119517309726399e-02  -3.9608436591593750e-02  -4.3068071662691852e-02  -4.6059332444984238e-02  -4.4350275905905664e-02  -3.9635697916001238e-02  -4.2131288673375039e-02  -4.2746897143014030e-02  -4.1996602799166387e-02  -4.0152236471618842e-02  -4.1258014520683194e-02  -3.7800823496162241e-02  -4.0368185559770377e-02  -4.0784157365993161e-02  -4.1234739553260562e-02  -3.9373996196076629e-02  -4.1783832326591899e-02  -3.8235000707820689e-02  -4.1940517128245251e-02  -4.2433344150719081e-02  -4.3859855643495330e-02  -4.1875929863523745e-02  -4.5335079792396586e-02  -4.1215971676603784e-02  -4.6252835782374872e-02  -3.9628127051281908e-02  -4.4728993103920298e-02  -4.2631648210053844e-02  -4.4472589448540795e-02  -4.1831594836635157e-02  -4.9014937933663967e-02  -4.7478583555453556e-02  -3.6904625711686748e-02  -3.4259880904038607e-02  -4.2648473211594366e-02  -4.1856348831658119e-02  -4.7517056055769613e-02  -3.9912533773445467e-02  -4.7599441444109020e-02  -3.6039181390202568e-02  -3.8777700902791791e-02  -4.1283934898393090e-02  -4.6783430790865138e-02  -3.5187488918613313e-02  -4.1871330344157201e-02  -3.9210076515700382e-02  -3.6707138229130985e-02  -3.6835374172715291e-02  -3.8757037155333691e-02  -4.2090494817735677e-02  -3.7412615419536478e-02  -4.0528375698845417e-02  -3.95291274939