<?xml version="1.0"?>
<VTKFile type="UnstructuredGrid"  version="0.1"  >
<UnstructuredGrid>
<Piece  NumberOfPoints="1297" NumberOfCells="2496">
<Points>
<DataArray  type="Float64"  NumberOfComponents="3"  format="ascii">0 0 0  0 1 0  1 1 0  1 0 0  1.1 -0.1 0  -0.1 -0.1 0  1.1 1.1 0  -0.1 1.1 0  0.302664149022998 0.6607840319361997 0  0.3033640075075824 0.3397320604812554 0  0.6983754898261569 0.3387133466192414 0  0.6983961356287203 0.6615687257182897 0  0.5005333670795652 0.500177584882039 0  0 0.9499999999997918 0  0 0.8999999999995836 0  0 0.8499999999996529 0  0 0.7999999999999998 0  0 0.7500000000003466 0  0 0.7000000000006934 0  0 0.6500000000010401 0  0 0.6000000000013869 0  0 0.5500000000017335 0  0 0.5000000000020587 0  0 0.4500000000018723 0  0 0.4000000000016644 0  0 0.3500000000014564 0  0 0.3000000000012483 0  0 0.2500000000010403 0  0 0.2000000000008322 0  0 0.1500000000006241 0  0 0.100000000000416 0  0 0.05000000000020799 0  0.04999999999989965 0 0  0.09999999999981467 0 0  0.1499999999997036 0 0  0.1999999999995579 0 0  0.2499999999994121 0 0  0.2999999999992664 0 0  0.3499999999991206 0 0  0.3999999999989749 0 0  0.4499999999988292 0 0  0.4999999999986943 0 0  0.5499999999988151 0 0  0.5999999999989468 0 0  0.6499999999990784 0 0  0.69999999999921 0 0  0.7499999999993417 0 0  0.7999999999994734 0 0  0.8499999999996051 0 0  0.8999999999997368 0 0  0.9499999999998684 0 0  1 0.04999999999989965 0  1 0.09999999999981467 0  1 0.1499999999997036 0  1 0.1999999999995579 0  1 0.2499999999994121 0  1 0.2999999999992664 0  1 0.3499999999991206 0  1 0.3999999999989749 0  1 0.4499999999988292 0  1 0.4999999999986943 0  1 0.5499999999988151 0  1 0.5999999999989468 0  1 0.6499999999990784 0  1 0.69999999999921 0  1 0.7499999999993417 0  1 0.7999999999994734 0  1 0.8499999999996051 0  1 0.8999999999997368 0  1 0.9499999999998684 0  0.9499999999997918 1 0  0.8999999999995836 1 0  0.8499999999996529 1 0  0.7999999999999998 1 0  0.7500000000003466 1 0  0.7000000000006934 1 0  0.6500000000010401 1 0  0.6000000000013869 1 0  0.5500000000017335 1 0  0.5000000000020587 1 0  0.4500000000018723 1 0  0.4000000000016644 1 0  0.3500000000014564 1 0  0.3000000000012483 1 0  0.2500000000010403 1 0  0.2000000000008322 1 0  0.1500000000006241 1 0  0.100000000000416 1 0  0.05000000000020799 1 0  -0.1 1.05000000000004 0  -0.1 1.000000000000079 0  -0.1 0.9500000000001624 0  -0.1 0.9000000000003032 0  -0.1 0.850000000000444 0  -0.1 0.8000000000005848 0  -0.1 0.7500000000007256 0  -0.1 0.7000000000008665 0  -0.1 0.6500000000010508 0  -0.1 0.6000000000012352 0  -0.1 0.5500000000014196 0  -0.1 0.500000000001539 0  -0.1 0.4500000000014195 0  -0.1 0.4000000000013 0  -0.1 0.3500000000011588 0  -0.1 0.3000000000010178 0  -0.1 0.2500000000008986 0  -0.1 0.2000000000007579 0  -0.1 0.1500000000006174 0  -0.1 0.1000000000005272 0  -0.1 0.05000000000040083 0  -0.1 2.671196597248127e-13 0  -0.1 -0.0499999999998666 0  -0.0500000000000906 -0.1 0  -1.730560139634463e-13 -0.1 0  0.04999999999975802 -0.1 0  0.09999999999961506 -0.1 0  0.1499999999994613 -0.1 0  0.199999999999302 -0.1 0  0.2499999999991446 -0.1 0  0.2999999999990088 -0.1 0  0.3499999999988296 -0.1 0  0.3999999999986936 -0.1 0  0.4499999999985143 -0.1 0  0.4999999999984002 -0.1 0  0.5499999999985247 -0.1 0  0.5999999999986493 -0.1 0  0.6499999999987955 -0.1 0  0.6999999999989417 -0.1 0  0.7499999999990659 -0.1 0  0.7999999999992116 -0.1 0  0.8499999999993573 -0.1 0  0.8999999999994526 -0.1 0  0.949999999999584 -0.1 0  0.9999999999997226 -0.1 0  1.049999999999861 -0.1 0  1.1 -0.0500000000000906 0  1.1 -1.730560139634463e-13 0  1.1 0.04999999999975802 0  1.1 0.09999999999961506 0  1.1 0.1499999999994613 0  1.1 0.199999999999302 0  1.1 0.2499999999991446 0  1.1 0.2999999999990088 0  1.1 0.3499999999988296 0  1.1 0.3999999999986936 0  1.1 0.4499999999985143 0  1.1 0.4999999999984002 0  1.1 0.5499999999985247 0  1.1 0.5999999999986493 0  1.1 0.6499999999987955 0  1.1 0.6999999999989417 0  1.1 0.7499999999990659 0  1.1 0.7999999999992116 0  1.1 0.8499999999993573 0  1.1 0.8999999999994526 0  1.1 0.949999999999584 0  1.1 0.9999999999997226 0  1.1 1.049999999999861 0  1.05000000000004 1.1 0  1.000000000000079 1.1 0  0.9500000000001624 1.1 0  0.9000000000003032 1.1 0  0.850000000000444 1.1 0  0.8000000000005848 1.1 0  0.7500000000007256 1.1 0  0.7000000000008665 1.1 0  0.6500000000010508 1.1 0  0.6000000000012352 1.1 0  0.5500000000014196 1.1 0  0.500000000001539 1.1 0  0.4500000000014195 1.1 0  0.4000000000013 1.1 0  0.3500000000011588 1.1 0  0.3000000000010178 1.1 0  0.2500000000008986 1.1 0  0.2000000000007579 1.1 0  0.1500000000006174 1.1 0  0.1000000000005272 1.1 0  0.05000000000040083 1.1 0  2.671196597248127e-13 1.1 0  -0.0499999999998666 1.1 0  0.2930166494545846 0.6483212777710984 0  0.2828292278289923 0.6317661659025136 0  0.2737875537607994 0.6128094826310516 0  0.2662987575991629 0.5919645679029268 0  0.2605247908486014 0.5699097741104237 0  0.2564559282907181 0.5470173120037622 0  0.254055998096044 0.5236228227190101 0  0.2533079948084397 0.500049473618104 0  0.2541845605044762 0.4764291737009545 0  0.2567069277274324 0.4530412049769398 0  0.2609127182866361 0.4301957188455325 0  0.2668173129852483 0.4082013350212254 0  0.2744289136549394 0.387449634123199 0  0.2835711879505629 0.3685404265858281 0  0.2937946423732518 0.3520736544758106 0  0.3142471094168851 0.3284769895146992 0  0.3287682063959051 0.3163066778332989 0  0.3459065937730101 0.3047711368277659 0  0.3650177257649236 0.2944608581392666 0  0.3856417808041872 0.285621937661077 0  0.4073883369640666 0.2783525268796355 0  0.429943162440535 0.2726791044902981 0  0.4530763583713666 0.2685850496324532 0  0.476589559642776 0.2660819829309758 0  0.5002804064585755 0.2651737655086271 0  0.5239955714008668 0.2658601426900086 0  0.5475531730461159 0.2681420611873251 0  0.5707702293085565 0.2720272130349994 0  0.5934139609337232 0.2775246102022977 0  0.6152710179320344 0.2846361530867637 0  0.6360490905155718 0.2933456921992534 0  0.6553442261471356 0.303594018343191 0  0.6726822305837221 0.3151367566920013 0  0.687330545089271 0.3273354964878519 0  0.708143556029168 0.3513081213596287 0  0.7183324505514911 0.3678123818555313 0  0.7274760663901285 0.3869168003459931 0  0.7350469631976465 0.4078811784068274 0  0.7408833749926309 0.4300330334709917 0  0.7450019944763939 0.4529760369896711 0  0.7474534216933142 0.4764124194888851 0  0.7482723433676437 0.5000909385063588 0  0.747467575139711 0.5237800524969215 0  0.7450248499955305 0.5472677587909615 0  0.7409209792012307 0.5702149220728399 0  0.735076855820093 0.5923796139422459 0  0.7275337548328029 0.6133026316343997 0  0.7183950766558561 0.6324211248861147 0  0.708199209793515 0.6489380410811197 0  0.6873412977494958 0.6729648801040691 0  0.6726579281724486 0.6852024166963062 0  0.6553497700624082 0.6967616906556657 0  0.6360744923226013 0.7070184668400656 0  0.6153166742567107 0.7157458424242824 0  0.5934616332156021 0.7228779425364099 0  0.5707913208187929 0.72840977457138 0  0.5475662663086365 0.732319905224648 0  0.5239963997311903 0.7346242048582574 0  0.5002633727174968 0.735333562399162 0  0.4765496953525111 0.7344526376091787 0  0.4530298328877267 0.7319805326378667 0  0.4298653220633448 0.7279230751010652 0  0.4072568992631745 0.7222761098003458 0  0.3854638525087408 0.7150517984646253 0  0.364745454747427 0.7062292662599996 0  0.3455078300720113 0.6959048953582124 0  0.3282535389204345 0.6843369761318755 0  0.3136227150238201 0.6721093666490808 0  0.3765015539481922 0.3155032615739199 0  0.2825963040231905 0.4414872011494061 0  0.3763047205888925 0.6850653571015902 0  0.282308746857975 0.5586686105057346 0  0.7166473997860544 0.5812068846196609 0  0.6032985926610046 0.6936767686912324 0  0.6236652586855138 0.3139039163598595 0  0.7206138418445271 0.4406163400806759 0  0.7239296728264578 0.5113669969263172 0  0.5578089579084849 0.2962655393715702 0  0.4432659132535381 0.2990059530493228 0  0.4418530199451603 0.7018268909392674 0  0.5353402273826346 0.7055984305288576 0  0.2782495164982082 0.4882410791298816 0  0.2906341086831754 0.3970933151472021 0  0.4888665939098791 0.297250471129626 0  0.2954665900239161 0.6016824022841963 0  0.7051745576874139 0.3947283685509585 0  0.4886306152228387 0.7068147084863895 0  0.6449744095251654 0.6782011132318014 0  0.3371520673272851 0.3342319164743589 0  0.6644758676121522 0.3347507197409973 0  0.3372389022021289 0.668663747746277 0  0.7018498318829194 0.6255617181799591 0  0.3053293944766549 0.3577865802560526 0  0.3064797255283701 0.641723448217371 0  0.6812337368993779 0.6607446452214163 0  0.6968386355241765 0.356683442169173 0  0.3561057231637161 0.6771568560592461 0  0.3664479640753474 0.6581791278691795 0  0.3873555451459468 0.6637227284840642 0  0.3761761765603788 0.6375496483621295 0  0.3985663820419938 0.6416712823919419 0  0.3858373421065576 0.6135076938515509 0  0.4131701504127833 0.6168139091212641 0  0.3973921751235585 0.5838159161971368 0  0.3592658241151912 0.6091374741918936 0  0.4311111505324193 0.5856933294324751 0  0.411325556341976 0.5485591763837616 0  0.3717026628570062 0.5529839817297575 0  0.3883794390378632 0.5143851197367421 0  0.3505170318548206 0.5162117019634741 0  0.3637385491359811 0.4820723487701204 0  0.4034644745648384 0.476505560876315 0  0.3826558350539755 0.444176949948752 0  0.4184931588979426 0.4378410617686275 0  0.3986497040422856 0.4072299955293121 0  0.4312372346210611 0.3935735083164251 0  0.3651518471485809 0.410517329663143 0  0.4073942485203361 0.3731490534622581 0  0.4400327551043456 0.6208057047491821 0  0.4657372056526537 0.5949497370005131 0  0.4840685888154484 0.6230070782589717 0  0.5026436699484909 0.5970492657858302 0  0.5203011082732287 0.6232449380688275 0  0.5386719130442482 0.5971162595355535 0  0.5559546313176895 0.6228479941029232 0  0.5740766229569346 0.5969952082508159 0  0.5916568947432995 0.6243396183060089 0  0.608838945311669 0.589485109660049 0  0.593184767045163
[...]
<PointData  Scalars="state"> 
<DataArray  type="Float64"  Name="state"  format="ascii">0.0000000000000000e+00  0.0000000000000000e+00  0.0000000000000000e+00  0.0000000000000000e+00  0.0000000000000000e+00  0.0000000000000000e+00  0.0000000000000000e+00  0.0000000000000000e+00  -3.1471284870933848e-02  -3.1433607165326088e-02  -3.1616016131693070e-02  -3.1635330157851888e-02  -6.9097542728957812e-03  0.0000000000000000e+00  0.0000000000000000e+00  0.0000000000000000e+00  0.0000000000000000e+00  0.0000000000000000e+00  0.0000000000000000e+00  0.0000000000000000e+00  0.0000000000000000e+00  0.0000000000000000e+00  0.0000000000000000e+00  0.0000000000000000e+00  0.0000000000000000e+00  0.0000000000000000e+00  0.0000000000000000e+00  0.0000000000000000e+00  0.0000000000000000e+00  0.0000000000000000e+00  0.0000000000000000e+00  0.0000000000000000e+00  0.0000000000000000e+00  0.0000000000000000e+00  0.0000000000000000e+00  0.0000000000000000e+00  0.0000000000000000e+00  0.0000000000000000e+00  0.0000000000000000e+00  0.0000000000000000e+00  0.0000000000000000e+00  0.0000000000000000e+00  0.0000000000000000e+00  0.0000000000000000e+00  0.0000000000000000e+00  0.0000000000000000e+00  0.0000000000000000e+00  0.0000000000000000e+00  0.0000000000000000e+00  0.0000000000000000e+00  0.0000000000000000e+00  0.0000000000000000e+00  0.0000000000000000e+00  0.0000000000000000e+00  0.0000000000000000e+00  0.0000000000000000e+00  0.0000000000000000e+00  0.0000000000000000e+00  0.0000000000000000e+00  0.0000000000000000e+00  0.0000000000000000e+00  0.0000000000000000e+00  0.0000000000000000e+00  0.0000000000000000e+00  0.0000000000000000e+00  0.0000000000000000e+00  0.0000000000000000e+00  0.0000000000000000e+00  0.0000000000000000e+00  0.0000000000000000e+00  0.0000000000000000e+00  0.0000000000000000e+00  0.0000000000000000e+00  0.0000000000000000e+00  0.0000000000000000e+00  0.0000000000000000e+00  0.0000000000000000e+00  0.0000000000000000e+00  0.0000000000000000e+00  0.0000000000000000e+00  0.0000000000000000e+00  0.0000000000000000e+00  0.0000000000000000e+00  0.0000000000000000e+00  0.0000000000000000e+00  0.0000000000000000e+00  0.0000000000000000e+00  0.0000000000000000e+00  0.0000000000000000e+00  0.0000000000000000e+00  0.0000000000000000e+00  0.0000000000000000e+00  0.0000000000000000e+00  0.0000000000000000e+00  0.0000000000000000e+00  0.0000000000000000e+00  0.0000000000000000e+00  0.0000000000000000e+00  0.0000000000000000e+00  0.0000000000000000e+00  0.0000000000000000e+00  0.0000000000000000e+00  0.0000000000000000e+00  0.0000000000000000e+00  0.0000000000000000e+00  0.0000000000000000e+00  0.0000000000000000e+00  0.0000000000000000e+00  0.0000000000000000e+00  0.0000000000000000e+00  0.0000000000000000e+00  0.0000000000000000e+00  0.0000000000000000e+00  0.0000000000000000e+00  0.0000000000000000e+00  0.0000000000000000e+00  0.0000000000000000e+00  0.0000000000000000e+00  0.0000000000000000e+00  0.0000000000000000e+00  0.0000000000000000e+00  0.0000000000000000e+00  0.0000000000000000e+00  0.0000000000000000e+00  0.0000000000000000e+00  0.0000000000000000e+00  0.0000000000000000e+00  0.0000000000000000e+00  0.0000000000000000e+00  0.0000000000000000e+00  0.0000000000000000e+00  0.0000000000000000e+00  0.0000000000000000e+00  0.0000000000000000e+00  0.0000000000000000e+00  0.0000000000000000e+00  0.0000000000000000e+00  0.0000000000000000e+00  0.0000000000000000e+00  0.0000000000000000e+00  0.0000000000000000e+00  0.0000000000000000e+00  0.0000000000000000e+00  0.0000000000000000e+00  0.0000000000000000e+00  0.0000000000000000e+00  0.0000000000000000e+00  0.0000000000000000e+00  0.0000000000000000e+00  0.0000000000000000e+00  0.0000000000000000e+00  0.0000000000000000e+00  0.0000000000000000e+00  0.0000000000000000e+00  0.0000000000000000e+00  0.0000000000000000e+00  0.0000000000000000e+00  0.0000000000000000e+00  0.0000000000000000e+00  0.0000000000000000e+00  0.0000000000000000e+00  0.0000000000000000e+00  0.0000000000000000e+00  0.0000000000000000e+00  0.0000000000000000e+00  0.0000000000000000e+00  0.0000000000000000e+00  0.0000000000000000e+00  0.0000000000000000e+00  0.0000000000000000e+00  0.0000000000000000e+00  0.0000000000000000e+00  0.0000000000000000e+00  0.0000000000000000e+00  0.0000000000000000e+00  0.0000000000000000e+00  0.0000000000000000e+00  0.0000000000000000e+00  0.0000000000000000e+00  0.0000000000000000e+00  0.0000000000000000e+00  -3.0639903823661878e-02  -3.0086590247842659e-02  -2.9418584688623656e-02  -2.8728000796984010e-02  -2.8139587749762929e-02  -2.7689175338292040e-02  -2.7363321377132821e-02  -2.7369680160667854e-02  -2.7421325479857289e-02  -2.7739336345020512e-02  -2.8201253831461777e-02  -2.8755391617581630e-02  -2.9324630755117088e-02  -2.9951434194229909e-02  -3.0514965294737833e-02  -3.0952138182207902e-02  -3.0568661176375279e-02  -3.0146609831140411e-02  -2.9701569304321902e-02  -2.9268082447694584e-02  -2.8769721589022513e-02  -2.8321954464946012e-02  -2.8031104951610840e-02  -2.7787323816837180e-02  -2.7721429187481855e-02  -2.7791383164236134e-02  -2.8014594331550610e-02  -2.8369763199681996e-02  -2.8789062378124546e-02  -2.9361052168288590e-02  -2.9897288168254960e-02  -3.0334467972225342e-02  -3.0758084107467214e-02  -3.1125581455460957e-02  -3.0860421342317736e-02  -3.0198585102355738e-02  -2.9527730594894684e-02  -2.8812727369845477e-02  -2.8219835385293240e-02  -2.7758080956311701e-02  -2.7490348953919993e-02  -2.7373086954696767e-02  -2.7476605850298201e-02  -2.7822555112808404e-02  -2.8280870250685063e-02  -2.8833455005491997e-02  -2.9573639428099298e-02  -3.0255285138672660e-02  -3.0913444942920136e-02  -3.1110931273594274e-02  -3.0733901654476429e-02  -3.0361440104422703e-02  -2.9899166483175057e-02  -2.9351533862666201e-02  -2.8757048325844508e-02  -2.8338292353362902e-02  -2.7943833358172861e-02  -2.7700987226897331e-02  -2.7652808311114146e-02  -2.7751649832455039e-02  -2.7962435128363484e-02  -2.8215501807490842e-02  -2.8679820788569003e-02  -2.9202366608015454e-02  -2.9665004691556404e-02  -3.0154480055035029e-02  -3.0596631620235751e-02  -3.0972681384538236e-02  -2.4260935493884434e-02  -2.3174377944417204e-02  -2.4245141863809560e-02  -2.3167914893331552e-02  -2.4230078313255417e-02  -2.3771528511100360e-02  -2.4400606484776301e-02  -2.3441349332689970e-02  -2.2617169507208115e-02  -2.2743828101244312e-02  -2.2345911293938099e-02  -2.2352631889021996e-02  -2.2135565748294690e-02  -2.2519295748245818e-02  -2.4955712975977571e-02  -2.1388494307079862e-02  -2.4022603335067210e-02  -2.4336396768037744e-02  -2.1917657508075707e-02  -2.5292364341461218e-02  -2.5822124479083337e-02  -2.5722703476144082e-02  -2.6109960145805203e-02  -2.5936851346891606e-02  -2.7142840519818998e-02  -2.6636205942396969e-02  -2.7459877675442470e-02  -2.7362448897716711e-02  -2.5106471348641086e-02  -2.1810145634148726e-02  -2.0740221761394135e-02  -1.8997909292792482e-02  -1.7777255412332264e-02  -1.6209728422802001e-02  -1.4710049544301697e-02  -1.3272339033841563e-02  -1.7942372885367461e-02  -1.1440072512604189e-02  -1.0518163522320122e-02  -1.3567697762044490e-02  -1.1205616314787536e-02  -1.4520255926800257e-02  -1.3345589231783929e-02  -1.0316312253581178e-02  -1.2791518277031736e-02  -1.0725632029505107e-02  -1.3830794346362214e-02  -1.3010540764734417e-02  -1.6186288479290177e-02  -1.6106621133573917e-02  -1.3751394838691769e-02  -1.0869964273019561e-02  -1.2897138523319977e-02  -1.0667901564652714e-02  -1.3016723217408979e-02  -1.1179948529376194e-02  -1.3846955734702397e-02  -1.2462135548805188e-02  -1.5569546310576743e-02  -1.3953250853709858e-02  -1.1045080859801841e-02  -1.3563553670243707e-02  -1.1135109829069803e-02  -1.6464422262852382e-02  -1.6738070672344098e-02  -1.7411226495267534e-02  -1.6706250146388626e-02  -1.6608854880989347e-02  -1.7831320143192875e-02  -1.5422287161085822e-02  -1.2600420568827190e-02  -1.9830107946170000e-02  -1.8151432018167449e-02  -1.6229728599206811e-02  -1.6984761196103513e-02  -1.5730092960737244e-02  -1.2163687709500194e-02  -1.6040879601088520e-02  -1.3063170303009838e-02  -9.7461802996779145e-03  -1.1686345837427833e-02  -1.4523150259556701e-02  -1.4045077273397762e-02  -1.0466293344710404e-02  -1.3618531599721991e-02  -1.6412653561062182e-02  -1.6501379809993704e-02  -1.4680150276513027e-02  -1.8859034791385430e-02  -1.9413238657816464e-02  -2.1339205768942601e-02  -2.1400006009015211e-02  -9.0262992454520751e-03  -1.9480241359082325e-02  -1.9358078352173031e-02  -1.9902173611235488e-02  -1.8054007062990703e-02  -2.1658214392993001e-02  -2.2009991982611728e-02  -2.0444257207002093e-02  -1.6364809304568354e-02  -1.8972544021830032e-02  -2.0725920104821820e-02  -1.8099886875523160e-02  -1.6075310796812761e-02  -1.8513036555012449e-02  -1.9159747981196296e-02  -1.6388801805418608e-02  -1.8690385364107540e-02  -2.0947751178169827e-02  -2.1513510784606935e-02  -2.0263221420583285e-02  -2.0015359827380837e-02  -1.8975837935465090e-02  -2.1163822409030416e-02  -1.6791871452056181e-02  -8.4361685286818231e-03  -2.1092939736456609e-02  -8.4814038132874896e-03  -1.4297090807413208e-02  -1.7475162421766291e-02  -1.4833479184608197e-02  -1.7630417503591404e-02  -1.9863405592766510e-02  -2.0420020882173068e-02  -1.8767438592565137e-02  -1.6958537101216659e-02  -1.8642440151187965e-02  -1.9155223749260455e-02  -1.0093666594384546e-02  -2.3275595180947514e-02  -2.3652528923990081e-02  -1.7343625504654889e-02  -1.9809619603697429e-02  -1.9287812835176416e-02  -1.7566881753555648e-02  -1.8477608774105387e-02  -2.0975011956778630e-02  -1.9215537480131547e-02  -2.0955024230812368e-02  -2.1311431674065802e-02  -2.2813818949469301e-02  -2.4416168586765825e-02  -2.4974413964900348e-02  -1.9809645312859180e-02  -2.1938661038139098e-02  -2.2155567835048323e-02  -2.2737931799387733e-02  -2.4759237906959483e-02  -2.5795593694555002e-02  -2.2821187958779084e-02  -1.9254313407333936e-02  -1.6886968607276374e-02  -2.4299052374693531e-02  -2.3471866774557610e-02  -2.2332324512347488e-02  -2.5327392424107264e-02  -2.2082312501679462e-02  -2.1938745137386435e-02  -2.3704792203785536e-02  -2.5776088051669564e-02  -2.2935842609098533e-02  -2.2118471199107904e-02  -2.3854765952282499e-02  -2.1005974666736239e-02  -2.3091674216842960e-02  -2.0408200487137873e-02  -2.2628109650644684e-02  -2.4647585862548109e-02  -2.6238973247741725e-02  -2.4731036022956610e-02  -2.1424329468038263e-02  -1.8042836081439133e-02  -2.3202866519905718e-02  -2.3693534754231492e-02  -2.1713455299039338e-02  -2.7293184719456607e-02  -2.7304014799632792e-02  -2.7376363589819184e-02  -2.7423642563761882e-02  -2.3091842502860938e-02  -9.6948850562683792e-03  -7.9682368966114588e-03  -1.9680892712922667e-02  -2.3751838202212890e-02  -2.4155769890115926e-02  -2.3088658844878419e-02  -2.6076666811178251e-02  -2.2457032743797581e-02  -2.2236859780783831e-02  -1.8520811403682114e-02  -1.7583332200597251e-02  -2.2153719986783098e-02  -1.7177996469547117e-02  -8.7919952436785447e-03  -8.8758469635712191e-03  -1.2203291063011216e-02  -2.0362952475216654e-02  -2.2196294751120494e-02  -1.8884493150350234e-02  -2.0162806932800759e-02  -1.8917595581852957e-02  -2.3060950019521548e-02  -2.2917099569012681e-02  -9.2432828087958326e-03  -2.3594113937822219e-02  -1.9347380933708788e-02  -2.0368642521516392e-02  -1.6221631322055910e-02  -2.2104403358261041e-02  -1.6414511820273047e-02  -1.2158298572197518e-02  -2.3364931769110968e-02  -7.6390329921688259e-03  -1.5463961039896468e-02  -2.5284217442416702e-02  -1.6819120209502703e-02  -1.9217730173961337e-02  -1.9784806091620828e-02  -9.5161038803387513e-03  -2.3265684847939325e-02  -2.1151933264511969e-02  -1.9041660449108891e-02  -7.3828980104056353e-03  -2.0564914462479742e-02  -1.9344671383051286e-02  -7.9506022443769312e-03  -1.5953278329139425e-02  -1.8880105392603864e-02  -7.4371265531839982e-03  -1.6236008521533354e-02  -2.1158084034561049e-02  -2.1741633263579342e-02  -1.8356649633603370e-02  -1.5307362680714075e-02  -1.9337994647807086e-02  -2.3748300326468037e-02  -1.6680886864720582e-02  -2.8613162566697735e-02  -2.8714493512194027e-02  -2.8600559322881081e-02  -2.8781898537759022e-02  -2.1246911375236360e-02  -2.3585877140214862e-02  -2.1078480630043823e-02  -2.2643759919210218e-02  -1.9714516820064091e-02  -1.5251606073008036e-02  -2.3015645145186753e-02  -2.1920231098725970e-02  -1.8412121457304500e-02  -1.4317465683257475e-02  -1.5611665989416844e-02  -1.3947546479038619e-02  -2.1720100185477789e-02  -1.4276223849528397e-02  -1.9519145956193286e-02  -1.3817549271341203e-02  -7.5648268343455815e-03  -1.8923006564593076e-02  -1.6134624676416652e-02  -1.7837431136586996e-02  -1.9203669906941463e-02  -1.5301304072615183e-02  -1.4424315906335070e-02  -8.6870927451735084e-03  -2.4402716298596864e-02  -3.1732591645136685e-02  -3.2121515707992349e-02  -3.4106495259857199e-02  -3.6649652108829638e-02  -3.4087706293722590e-02  -3.7257929824847713e-02  -3.2055179712191857e-02  -3.3764483071300665e-02  -3.2009419942939869e-02  -3.3845487574757464e-02  -3.6783043952514242e-02  -3.6549754805264088e-02  -1.6967011825196325e-02  -1.5100559413009520e-02  -1.8239003747861936e-02  -1.5731802601221850e-02  -3.2105860332264313e-02  -3.5799124251832765e-02  -3.5958451303254285e-02  -3.2119449630675471e-02  -4.0751670393916098e-02  -4.5889996511713389e-02  -3.2737752201135228e-02  -3.2611367269264675e-02  -3.7626287786267365e-02  -4.7214987493355259e-02  -4.9675339846064689e-02  -4.9458350378355422e-02  -5.1206852902643991e-02  -5.1393713520859752e-02  -1.7689636883603817e-02  -1.7173046236132920e-02  -1.7690927174284225e-02  -1.7169427911165675e-02  -1.7319199246844292e-02  -1.6862830987766666e-02  -1.7911435911388104e-02  -5.1173862039855661e-02  -5.1555408648599622e-02  -4.9434930705308813e-02  -4.7743242237111509e-02  -1.8965409420332393e-02  -1.8308508807905223e-02  -1.7556195666808650e-02  -1.7108568032438008e-02  -1.8554330247350904e-02  -1.7449042467593941e-02  -2.0120283378538963e-02  -1.6064206846747964e-02  -4.7841382732836057e-02  -4.6740018854376328e-02  -1.8020161047006853e-02  -1.6183596817724532e-02  -1.8047605526822556e-02  -4.1135809553265464e-02  -4.5690597216097459e-02  -4.8090424943371735e-02  -5.0129166973553227e-02  -5.1100847865383360e-02  -5.1304672832851526e-02  -5.0572331714659510e-02  -5.1137960264923857e-02  -5.1187969400222376e-02  -4.9576921446166530e-02  -4.1063274865512991e-02  -4.5926056956650252e-02  -4.8118649714174011e-02  -5.0156634514113924e-02  -4.8864827747114536e-02  -5.1160525758110163e-02  -5.1377541922112906e-02  -5.1355409175920852e-02  -5.1319451258947379e-02  -4.9928147202505720e-02  -3.4124381193065371e-02  -4.0817146606381118e-02  -4.5956597883950283e-02  -4.7313983945011677e-02  -4.9853641130548194e-02  -4.9611710294307824e-02  -5.1384461872657113e-02  -5.1581465782649730e-02  -5.1425388589900679e-02  -5.1599774174547842e-02  -3.1440404782844274e-02  -3.1839127043563467e-02  -3.3446668642884259e-02  -3.3504096071308866e-02  -5.0565966471816090e-02  -4.9882563661779518e-02  -4.9908485017035681e-02  -4.9658142148747204e-02  -4.9622055299210648e-02  -5.0047362174215848e-02  -1.8003617781409038e-02  -4.9374906704751753e-02  -5.1238552763178194e-02  -4.9366342754107263e-02  -4.9100292139293150e-02  -5.0664991103006998e-02  -5.0165190684384735e-02  -3.4116056540881061e-02  -4.6103475991134291e-02  -4.6079337416619251e-02  -1.4781719384925663e-02  -1.3780305909064816e-02  -1.4794639256059051e-02  -4.5220776447747232e-02  -4.6064453049355990e-02  -4.3965607635312973e-02  -4.3250176155261257e-02  -4.7903578764981684e-02  -4.9612950623716186e-02  -4.7475850995172632e-02  -4.9098806176200931e-02  -4.6139483434501284e-02  -4.9017980993626052e-02  -4.5544790747738803e-02  -4.7980306716027869e-02  -4.4526943166497607e-02  -4.6241556657475799e-02  -4.6154084683903217e-02  -4.8881188141736198e-02  -4.5447411164076877e-02  -4.7627492466544678e-02  -4.4382174879438019e-02  -4.6263651683774089e-02  -4.3275568134995307e-02  -4.5123312310068268e-02  -4.2417724994470371e-02  -4.4347741778718780e-02  -4.1811907807808003e-02  -4.3994076520623648e-02  -4.1529892772638591e-02  -4.4122478286674760e-02  -4.3250753840644619e-02  -4.5000340264965411e-02  -4.2293231279056966e-02  -4.4180861193387211e-02  -4.1641999606218019e-02  -4.3808989532917023e-02  -4.1311710345972905e-02  -4.3947907627073172e-02  -4.5503067068711732e-02  -4.5263758252602357e-02  -4.8957278659461929e-02  -4.8791428440707996e-02  -4.5198176567379074e-02  -4.4692410421999090e-02  -4.1899911612183684e-02  -4.4752147536993352e-02  -4.2477042201604136e-02  -4.5680123406920001e-02  -4.3120781071305021e-02  -4.1659396106954322e-02  -4.4535711658819761e-02  -4.2149347902211358e-02  -4.5411211489553759e-02  -4.2743741481169661e-02  -4.9752637106400370e-02  -4.6516833748208003e-02  -4.5672867558660464e-02  -4.4951249438667636e-02  -4.6188490636642862e-02  -4.5082230932181333e-02  -4.6353990890042183e-02  -4.3321531649243628e-02  -3.9671212287389575e-02  -4.3563078807927189e-02  -3.9711870540887283e-02  -4.3931223559931350e-02  -3.6377637433069113e-02  -4.4072222393812553e-02  -4.4862140957112162e-02  -4.1057174293518017e-02  -3.9619071095290725e-02  -3.6195706848592690e-02  -4.4689578481248951e-02  -4.0119414890577042e-02  -4.6293392424918388e-02  -3.9009765442147709e-02  -4.6403003818904290e-02  -3.7563999729454192e-02  -3.7723620187648702e-02  -3.6806435307246137e-02  -4.2795358384714127e-02  -3.8382331345810879e-02  -4.2704834354750344e-02  -3.0650213101433704e-02  -5.0093097438860014e-02  -1.1696982338353198e-02  -4.5489782969011225e-02  -5.0114384892786946e-02  -3.8113835718076181e-02  -3.6597613913187887e-02  -4.1254873488442471e-02  -3.8095092682413248e-02  -4.5543812635871449e-02  -4.5518100861813605e-02  -4.4517199896451559e-02  -4.7881689215488410e-02  -4.6056662771035491e-02  -4.6959330372212039e-02  -4.5463988423643603e-02  -4.3638799329781028e-02  -4.2586649438899435e-02  -4.5607584643503639e-02  -4.3889694412877100e-02  -4.1554600058663849e-02  -4.2307756694548941e-02  -4.0613102842073985e-02  -4.1381124893650346e-02  -4.0216592085450899e-02  -4.0878638313564621e-02  -4.0376012707757404e-02  -4.0953577552501334e-02  -3.7684400337231777e-02  -4.2311568742139892e-02  -4.2941321108267774e-02  -4.1843186595513698e-02  -3.0994345622342566e-02  -4.0687024353506782e-02  -3.7692511785068654e-02  -3.8507297262509718e-02  -3.6087620421245678e-02  -1.0668236361667055e-02  -1.2439593480864966e-02  -1.1774728182458274e-02  -4.4799927030804473e-02  -3.8764501297941859e-02  -4.8503102625446444e-02  -4.3387320405729901e-02  -4.6435152828900532e-02  -3.2484736201733873e-02  -3.3209732036997654e-02  -3.4080997837662379e-02  -3.9519882638102778e-02  -4.2965498401098555e-02  -4.5951733557357356e-02  -4.4243001315111288e-02  -3.9538668523853411e-02  -4.2030738052479394e-02  -4.2647705606512890e-02  -4.1902053514253246e-02  -4.0058608825124756e-02  -4.1167064431989170e-02  -3.7714388287260203e-02  -4.0279510212670962e-02  -4.0698311259198511e-02  -4.1146377972813446e-02  -3.9285056260931851e-02  -4.1689602630936289e-02  -3.8144954782023371e-02  -4.1840925701622428e-02  -4.2336021607263997e-02  -4.3754992755704748e-02  -4.1774654515269266e-02  -4.5226724847207522e-02  -4.1118916205221706e-02  -4.6150557759742819e-02  -3.9542259035139776e-02  -4.4642624776195211e-02  -4.2735657185526042e-02  -4.4553857188240287e-02  -4.1958633030956809e-02  -4.9071306207344866e-02  -4.7516960450787966e-02  -3.6817546219092639e-02  -3.4189654996970249e-02  -4.2749568926166881e-02  -4.1980048858769742e-02  -4.7525540524689380e-02  -3.9831037957225354e-02  -4.7682688239344233e-02  -3.5957410879217402e-02  -3.8858946544338566e-02  -4.1197446774212894e-02  -4.6677646747921894e-02  -3.5119015237045789e-02  -4.1803190415620334e-02  -3.9131588180987775e-02  -3.6825648746339368e-02  -3.6927186003491423e-02  -3.8835143206035767e-02  -4.2003074781274317e-02  -3.7357708036842414e-02  -4.0445288859551780e-02  -3.94497476996