<?xml version="1.0"?>
<VTKFile type="UnstructuredGrid"  version="0.1"  >
<UnstructuredGrid>
<Piece  NumberOfPoints="1297" NumberOfCells="2496">
<Points>
<DataArray  type="Float64"  NumberOfComponents="3"  format="ascii">0 0 0  0 1 0  1 1 0  1 0 0  1.1 -0.1 0  -0.1 -0.1 0  1.1 1.1 0  -0.1 1.1 0  0.3060766109383821 0.6591244780310994 0  0.3067328758518819 0.3413834791786107 0  0.6950320604586256 0.3403682668901959 0  0.6950710747766188 0.6599411820270885 0  0.5005454251393961 0.5001811483780421 0  0 0.9499999999997918 0  0 0.8999999999995836 0  0 0.8499999999996529 0  0 0.7999999999999998 0  0 0.7500000000003466 0  0 0.7000000000006934 0  0 0.6500000000010401 0  0 0.6000000000013869 0  0 0.5500000000017335 0  0 0.5000000000020587 0  0 0.4500000000018723 0  0 0.4000000000016644 0  0 0.3500000000014564 0  0 0.3000000000012483 0  0 0.2500000000010403 0  0 0.2000000000008322 0  0 0.1500000000006241 0  0 0.100000000000416 0  0 0.05000000000020799 0  0.04999999999989965 0 0  0.09999999999981467 0 0  0.1499999999997036 0 0  0.1999999999995579 0 0  0.2499999999994121 0 0  0.2999999999992664 0 0  0.3499999999991206 0 0  0.3999999999989749 0 0  0.4499999999988292 0 0  0.4999999999986943 0 0  0.5499999999988151 0 0  0.5999999999989468 0 0  0.6499999999990784 0 0  0.69999999999921 0 0  0.7499999999993417 0 0  0.7999999999994734 0 0  0.8499999999996051 0 0  0.8999999999997368 0 0  0.9499999999998684 0 0  1 0.04999999999989965 0  1 0.09999999999981467 0  1 0.1499999999997036 0  1 0.1999999999995579 0  1 0.2499999999994121 0  1 0.2999999999992664 0  1 0.3499999999991206 0  1 0.3999999999989749 0  1 0.4499999999988292 0  1 0.4999999999986943 0  1 0.5499999999988151 0  1 0.5999999999989468 0  1 0.6499999999990784 0  1 0.69999999999921 0  1 0.7499999999993417 0  1 0.7999999999994734 0  1 0.8499999999996051 0  1 0.8999999999997368 0  1 0.9499999999998684 0  0.9499999999997918 1 0  0.8999999999995836 1 0  0.8499999999996529 1 0  0.7999999999999998 1 0  0.7500000000003466 1 0  0.7000000000006934 1 0  0.6500000000010401 1 0  0.6000000000013869 1 0  0.5500000000017335 1 0  0.5000000000020587 1 0  0.4500000000018723 1 0  0.4000000000016644 1 0  0.3500000000014564 1 0  0.3000000000012483 1 0  0.2500000000010403 1 0  0.2000000000008322 1 0  0.1500000000006241 1 0  0.100000000000416 1 0  0.05000000000020799 1 0  -0.1 1.05000000000004 0  -0.1 1.000000000000079 0  -0.1 0.9500000000001624 0  -0.1 0.9000000000003032 0  -0.1 0.850000000000444 0  -0.1 0.8000000000005848 0  -0.1 0.7500000000007256 0  -0.1 0.7000000000008665 0  -0.1 0.6500000000010508 0  -0.1 0.6000000000012352 0  -0.1 0.5500000000014196 0  -0.1 0.500000000001539 0  -0.1 0.4500000000014195 0  -0.1 0.4000000000013 0  -0.1 0.3500000000011588 0  -0.1 0.3000000000010178 0  -0.1 0.2500000000008986 0  -0.1 0.2000000000007579 0  -0.1 0.1500000000006174 0  -0.1 0.1000000000005272 0  -0.1 0.05000000000040083 0  -0.1 2.671196597248127e-13 0  -0.1 -0.0499999999998666 0  -0.0500000000000906 -0.1 0  -1.730560139634463e-13 -0.1 0  0.04999999999975802 -0.1 0  0.09999999999961506 -0.1 0  0.1499999999994613 -0.1 0  0.199999999999302 -0.1 0  0.2499999999991446 -0.1 0  0.2999999999990088 -0.1 0  0.3499999999988296 -0.1 0  0.3999999999986936 -0.1 0  0.4499999999985143 -0.1 0  0.4999999999984002 -0.1 0  0.5499999999985247 -0.1 0  0.5999999999986493 -0.1 0  0.6499999999987955 -0.1 0  0.6999999999989417 -0.1 0  0.7499999999990659 -0.1 0  0.7999999999992116 -0.1 0  0.8499999999993573 -0.1 0  0.8999999999994526 -0.1 0  0.949999999999584 -0.1 0  0.9999999999997226 -0.1 0  1.049999999999861 -0.1 0  1.1 -0.0500000000000906 0  1.1 -1.730560139634463e-13 0  1.1 0.04999999999975802 0  1.1 0.09999999999961506 0  1.1 0.1499999999994613 0  1.1 0.199999999999302 0  1.1 0.2499999999991446 0  1.1 0.2999999999990088 0  1.1 0.3499999999988296 0  1.1 0.3999999999986936 0  1.1 0.4499999999985143 0  1.1 0.4999999999984002 0  1.1 0.5499999999985247 0  1.1 0.5999999999986493 0  1.1 0.6499999999987955 0  1.1 0.6999999999989417 0  1.1 0.7499999999990659 0  1.1 0.7999999999992116 0  1.1 0.8499999999993573 0  1.1 0.8999999999994526 0  1.1 0.949999999999584 0  1.1 0.9999999999997226 0  1.1 1.049999999999861 0  1.05000000000004 1.1 0  1.000000000000079 1.1 0  0.9500000000001624 1.1 0  0.9000000000003032 1.1 0  0.850000000000444 1.1 0  0.8000000000005848 1.1 0  0.7500000000007256 1.1 0  0.7000000000008665 1.1 0  0.6500000000010508 1.1 0  0.6000000000012352 1.1 0  0.5500000000014196 1.1 0  0.500000000001539 1.1 0  0.4500000000014195 1.1 0  0.4000000000013 1.1 0  0.3500000000011588 1.1 0  0.3000000000010178 1.1 0  0.2500000000008986 1.1 0  0.2000000000007579 1.1 0  0.1500000000006174 1.1 0  0.1000000000005272 1.1 0  0.05000000000040083 1.1 0  2.671196597248127e-13 1.1 0  -0.0499999999998666 1.1 0  0.2964596276971534 0.6467517607015196 0  0.2859873872032259 0.6304744309070736 0  0.276412181967017 0.6118786467670749 0  0.2682337736613416 0.5913732934843822 0  0.2617749005297572 0.5695830749016729 0  0.2571354905288607 0.5468576550727786 0  0.2543600449367027 0.5235536435021915 0  0.2534844921925363 0.5000402758114371 0  0.2544889273362328 0.4764664831499547 0  0.257384394200301 0.4531687331911799 0  0.2621568329575262 0.4304963411056608 0  0.2687418674815924 0.4087764235035501 0  0.2770276184937185 0.3883747705451214 0  0.2866929347373121 0.369826684733678 0  0.2971939459568437 0.3536251714848427 0  0.3172912147811708 0.329957547460355 0  0.3312667715380726 0.3172746007876711 0  0.3477518478511777 0.3049367922280853 0  0.3662330312244295 0.2936448831407383 0  0.3863329547115467 0.2837646127082157 0  0.4077001278058319 0.2755097175637033 0  0.4300270373635365 0.2689943891521375 0  0.4530460385219851 0.2642636864380732 0  0.4765373264616908 0.2613615567699524 0  0.5002471419812419 0.2603125061783266 0  0.5239879912637366 0.2611215103074763 0  0.5475354740328899 0.2637851506362312 0  0.5706548108765663 0.2682907974683992 0  0.5930873213067184 0.2746183436635606 0  0.6145863190583689 0.2827102129624083 0  0.6348557929465964 0.2924688609891641 0  0.6535277133249267 0.3037139118968326 0  0.6702128757625453 0.3160806762615904 0  0.6843145201533584 0.3288050619744673 0  0.7047683978313481 0.3528585144574628 0  0.7152327766367597 0.3690890171645895 0  0.7249129927969991 0.3878332232327067 0  0.7331696900890987 0.408461996442815 0  0.7396841290452744 0.4303509848224962 0  0.744362891628335 0.4531185210767446 0  0.7471811966127551 0.4764555488947625 0  0.7481289509496754 0.5000790879700061 0  0.7471987767151207 0.5237156101033356 0  0.7443912451501139 0.5471210548725052 0  0.7397282625800444 0.5698933430476673 0  0.7332101853149564 0.5918062391718584 0  0.7249879196618837 0.6123952735998048 0  0.7153125686677178 0.6311598374975721 0  0.7048423174889975 0.6474086488003031 0  0.6843402040635987 0.6715212293001996 0  0.6701971219660511 0.6842861710745254 0  0.6535381835126899 0.696657519058732 0  0.6348888414914272 0.7079058837476664 0  0.6146455282581237 0.7176754979151619 0  0.5931540808538581 0.7257861530780906 0  0.5706984546781971 0.7321515891954524 0  0.547574904186062 0.7366880780102243 0  0.5240193084594273 0.7393797340253828 0  0.5002598282726206 0.7402183384786488 0  0.4765253085135241 0.7392030841750428 0  0.4530300124024474 0.7363397626613311 0  0.4299728006639086 0.7316499885316782 0  0.4075844870878439 0.7251662104174005 0  0.3861679778002566 0.7169585379891784 0  0.3659683248142483 0.7070862312575577 0  0.3473599343866771 0.6957639996599313 0  0.3307681336797356 0.6833798417850846 0  0.3166984350380175 0.6706265850959224 0  0.3776974131208039 0.3146081006110541 0  0.283792758891487 0.4417295003283488 0  0.377515653116081 0.6859910908668843 0  0.2835038796572839 0.5584085180666201 0  0.7150518912209999 0.5807820216954789 0  0.60254280736737 0.6954390265481879 0  0.6225044470079067 0.3129221887577721 0  0.7194618029226004 0.4408703100727699 0  0.7233309003293292 0.5113276242187272 0  0.5575530553804938 0.2931619976113838 0  0.4435091630932576 0.2960074993208984 0  0.4421255149400671 0.7048368905519606 0  0.5352245670204078 0.7090578295190934 0  0.2788908408120379 0.4882671352836638 0  0.2928118142233819 0.3977812140418594 0  0.4888870925222092 0.2937437591346495 0  0.2975838116242658 0.6010378515147673 0  0.7030273902796669 0.3954070113108756 0  0.4886691321733216 0.7104801185341576 0  0.6433082398365505 0.678368715780497 0  0.339393743314255 0.3348097799420039 0  0.662251907372741 0.3353164197294081 0  0.3394768841326187 0.6681177433019561 0  0.6992690377983323 0.6246233438323434 0  0.3082459655542775 0.3589822280227212 0  0.3093686613196379 0.6405651218210079 0  0.6785441272837009 0.6596927700724901 0  0.6939274634286788 0.3578922015236753 0  0.3578143819300307 0.6772961006415258 0  0.3679627723476273 0.6585188596688584 0  0.3884828934979236 0.6646540384003885 0  0.3775076725022673 0.6379752623358192 0  0.3995681228784344 0.6425597498968052 0  0.3869669971571554 0.613954098542279 0  0.4139877290309901 0.6176366818970236 0  0.3983105054978537 0.5842066628412942 0  0.3607235432171701 0.609184385934292 0  0.4317205476462211 0.5863546762088125 0  0.4120463079193202 0.5488261604322398 0  0.3727142699811367 0.5530827653201993 0  0.3891977154070742 0.5144342929619464 0  0.3514956252859167 0.5162109825539067 0  0.3646727025844004 0.4820480002729823 0  0.4041996055496797 0.476396833820868 0  0.3835970617675462 0.4440125922792676 0  0.4191731708669533 0.4374589230176165 0  0.3995695303392254 0.4067743285388672 0  0.4318512157706145 0.3926981224295826 0  0.3663996257893051 0.4104126541628251 0  0.4082695385824616 0.372297242207438 0  0.4405740112158211 0.6219563692271828 0  0.4660449991067505 0.5958948039586695 0  0.4842162463337595 0.6244428343756484 0  0.5026386225160208 0.5980883682165286 0  0.5201494949523134 0.6246815314839101 0  0.5383619838215787 0.5980807151031258 0  0.5554900042214217 0.6240763422392374 0  0.5734507827878825 0.5977510549705272 0  0.5908249474571828 0.6252044905659173 0  0.6078950238293018 0.5898789718570941 0  0.5924
[...]
<PointData  Scalars="state"> 
<DataArray  type="Float64"  Name="state"  format="ascii">0.0000000000000000e+00  0.0000000000000000e+00  0.0000000000000000e+00  0.0000000000000000e+00  0.0000000000000000e+00  0.0000000000000000e+00  0.0000000000000000e+00  0.0000000000000000e+00  -3.1056375662172547e-02  -3.1021317486480734e-02  -3.1194948391014818e-02  -3.1217470784008907e-02  -6.8979226633914337e-03  0.0000000000000000e+00  0.0000000000000000e+00  0.0000000000000000e+00  0.0000000000000000e+00  0.0000000000000000e+00  0.0000000000000000e+00  0.0000000000000000e+00  0.0000000000000000e+00  0.0000000000000000e+00  0.0000000000000000e+00  0.0000000000000000e+00  0.0000000000000000e+00  0.0000000000000000e+00  0.0000000000000000e+00  0.0000000000000000e+00  0.0000000000000000e+00  0.0000000000000000e+00  0.0000000000000000e+00  0.0000000000000000e+00  0.0000000000000000e+00  0.0000000000000000e+00  0.0000000000000000e+00  0.0000000000000000e+00  0.0000000000000000e+00  0.0000000000000000e+00  0.0000000000000000e+00  0.0000000000000000e+00  0.0000000000000000e+00  0.0000000000000000e+00  0.0000000000000000e+00  0.0000000000000000e+00  0.0000000000000000e+00  0.0000000000000000e+00  0.0000000000000000e+00  0.0000000000000000e+00  0.0000000000000000e+00  0.0000000000000000e+00  0.0000000000000000e+00  0.0000000000000000e+00  0.0000000000000000e+00  0.0000000000000000e+00  0.0000000000000000e+00  0.0000000000000000e+00  0.0000000000000000e+00  0.0000000000000000e+00  0.0000000000000000e+00  0.0000000000000000e+00  0.0000000000000000e+00  0.0000000000000000e+00  0.0000000000000000e+00  0.0000000000000000e+00  0.0000000000000000e+00  0.0000000000000000e+00  0.0000000000000000e+00  0.0000000000000000e+00  0.0000000000000000e+00  0.0000000000000000e+00  0.0000000000000000e+00  0.0000000000000000e+00  0.0000000000000000e+00  0.0000000000000000e+00  0.0000000000000000e+00  0.0000000000000000e+00  0.0000000000000000e+00  0.0000000000000000e+00  0.0000000000000000e+00  0.0000000000000000e+00  0.0000000000000000e+00  0.0000000000000000e+00  0.0000000000000000e+00  0.0000000000000000e+00  0.0000000000000000e+00  0.0000000000000000e+00  0.0000000000000000e+00  0.0000000000000000e+00  0.0000000000000000e+00  0.0000000000000000e+00  0.0000000000000000e+00  0.0000000000000000e+00  0.0000000000000000e+00  0.0000000000000000e+00  0.0000000000000000e+00  0.0000000000000000e+00  0.0000000000000000e+00  0.0000000000000000e+00  0.0000000000000000e+00  0.0000000000000000e+00  0.0000000000000000e+00  0.0000000000000000e+00  0.0000000000000000e+00  0.0000000000000000e+00  0.0000000000000000e+00  0.0000000000000000e+00  0.0000000000000000e+00  0.0000000000000000e+00  0.0000000000000000e+00  0.0000000000000000e+00  0.0000000000000000e+00  0.0000000000000000e+00  0.0000000000000000e+00  0.0000000000000000e+00  0.0000000000000000e+00  0.0000000000000000e+00  0.0000000000000000e+00  0.0000000000000000e+00  0.0000000000000000e+00  0.0000000000000000e+00  0.0000000000000000e+00  0.0000000000000000e+00  0.0000000000000000e+00  0.0000000000000000e+00  0.0000000000000000e+00  0.0000000000000000e+00  0.0000000000000000e+00  0.0000000000000000e+00  0.0000000000000000e+00  0.0000000000000000e+00  0.0000000000000000e+00  0.0000000000000000e+00  0.0000000000000000e+00  0.0000000000000000e+00  0.0000000000000000e+00  0.0000000000000000e+00  0.0000000000000000e+00  0.0000000000000000e+00  0.0000000000000000e+00  0.0000000000000000e+00  0.0000000000000000e+00  0.0000000000000000e+00  0.0000000000000000e+00  0.0000000000000000e+00  0.0000000000000000e+00  0.0000000000000000e+00  0.0000000000000000e+00  0.0000000000000000e+00  0.0000000000000000e+00  0.0000000000000000e+00  0.0000000000000000e+00  0.0000000000000000e+00  0.0000000000000000e+00  0.0000000000000000e+00  0.0000000000000000e+00  0.0000000000000000e+00  0.0000000000000000e+00  0.0000000000000000e+00  0.0000000000000000e+00  0.0000000000000000e+00  0.0000000000000000e+00  0.0000000000000000e+00  0.0000000000000000e+00  0.0000000000000000e+00  0.0000000000000000e+00  0.0000000000000000e+00  0.0000000000000000e+00  0.0000000000000000e+00  0.0000000000000000e+00  0.0000000000000000e+00  0.0000000000000000e+00  0.0000000000000000e+00  0.0000000000000000e+00  0.0000000000000000e+00  0.0000000000000000e+00  0.0000000000000000e+00  0.0000000000000000e+00  0.0000000000000000e+00  0.0000000000000000e+00  0.0000000000000000e+00  0.0000000000000000e+00  -3.0263723801334953e-02  -2.9816567282569498e-02  -2.9283148620100171e-02  -2.8726034618365096e-02  -2.8252376548447204e-02  -2.7886183152571312e-02  -2.7609888786991176e-02  -2.7634661260848369e-02  -2.7669294840520636e-02  -2.7936908004729467e-02  -2.8314582560736271e-02  -2.8753522419407738e-02  -2.9187041994925309e-02  -2.9680769476019442e-02  -3.0141848671221910e-02  -3.0550704768256345e-02  -3.0236081654130730e-02  -2.9924230793771826e-02  -2.9598337856788198e-02  -2.9276037938705462e-02  -2.8867828883759029e-02  -2.8483071981961258e-02  -2.8235064834696014e-02  -2.8015259846778398e-02  -2.7957216397190073e-02  -2.8021361092334156e-02  -2.8221387352668659e-02  -2.8531905168215847e-02  -2.8889249881805319e-02  -2.9368931715934105e-02  -2.9792575937982346e-02  -3.0108970453846379e-02  -3.0419390265295533e-02  -3.0715973707452403e-02  -3.0481374965836278e-02  -2.9920795649365117e-02  -2.9384843043992696e-02  -2.8804234802359753e-02  -2.8324770844064442e-02  -2.7947623968312955e-02  -2.7730487640783872e-02  -2.7629841218927663e-02  -2.7717210757672639e-02  -2.8012521489852234e-02  -2.8386359937222081e-02  -2.8825112359715698e-02  -2.9431859849342164e-02  -2.9979530159068849e-02  -3.0537070418560443e-02  -3.0703224676310353e-02  -3.0394192567604509e-02  -3.0130028170115172e-02  -2.9789109679626922e-02  -2.9354989246010224e-02  -2.8852583414965490e-02  -2.8496243622823110e-02  -2.8144905482564410e-02  -2.7925048919293517e-02  -2.7884987426947762e-02  -2.7977174469807586e-02  -2.8164537064853216e-02  -2.8376164772999136e-02  -2.8776146874402532e-02  -2.9208192448800078e-02  -2.9562612102519557e-02  -2.9933507411117926e-02  -3.0262868239474487e-02  -3.0568170319640976e-02  -2.4187042177678673e-02  -2.3252508450013649e-02  -2.4169876826891090e-02  -2.3247989685168571e-02  -2.4237589627791066e-02  -2.3757341358250649e-02  -2.4326440293122028e-02  -2.3516062758653714e-02  -2.2764657308570652e-02  -2.2830081919334323e-02  -2.2425598303469046e-02  -2.2427307191797943e-02  -2.2235040807039416e-02  -2.2674262599022162e-02  -2.4876621968529893e-02  -2.1491961762217324e-02  -2.3950373159542456e-02  -2.4242195410148715e-02  -2.2029418373890712e-02  -2.5138004348243016e-02  -2.5607998323965243e-02  -2.5506690570859740e-02  -2.5894054780399228e-02  -2.5752566332365126e-02  -2.6882752582288644e-02  -2.6386050470297705e-02  -2.7175821085177687e-02  -2.7092311038074256e-02  -2.4959726368468129e-02  -2.1717057526096172e-02  -2.0689350731511357e-02  -1.8936800175086473e-02  -1.7743642686809245e-02  -1.6177115494896258e-02  -1.4691422172300569e-02  -1.3262842359562217e-02  -1.7891642931292400e-02  -1.1429470633767513e-02  -1.0518169624836324e-02  -1.3578266238273195e-02  -1.1221711821938882e-02  -1.4559799276156384e-02  -1.3376519731108909e-02  -1.0324837331482551e-02  -1.2798307814916919e-02  -1.0721693774356403e-02  -1.3817629331531599e-02  -1.2998219699536366e-02  -1.6164519816781599e-02  -1.6083815432616992e-02  -1.3740091559579521e-02  -1.0855905447123983e-02  -1.2890068118176346e-02  -1.0651622006428611e-02  -1.3008448677087467e-02  -1.1163729180114497e-02  -1.3834460328427098e-02  -1.2445435972871578e-02  -1.5542503276599205e-02  -1.3936552220050191e-02  -1.1040437164041513e-02  -1.3568189193587786e-02  -1.1143983935837466e-02  -1.6440814591793373e-02  -1.6751811686198232e-02  -1.7400142228432829e-02  -1.6728027964477300e-02  -1.6641086872179023e-02  -1.7899488958251736e-02  -1.5422213701749385e-02  -1.2591156703805426e-02  -1.9817198958804998e-02  -1.8155373112457761e-02  -1.6256379471069279e-02  -1.7007704734617528e-02  -1.5747947287663010e-02  -1.2155451080698485e-02  -1.6064058761651224e-02  -1.3056321645273658e-02  -9.7321913985048396e-03  -1.1670924701699087e-02  -1.4509823386801193e-02  -1.4025714989199932e-02  -1.0460282460370882e-02  -1.3609652931523478e-02  -1.6375960189775825e-02  -1.6475414486981928e-02  -1.4684326859202217e-02  -1.8793725070725749e-02  -1.9365997723774307e-02  -2.1238273772702029e-02  -2.1291302981944978e-02  -9.0237204067701877e-03  -1.9458145227168322e-02  -1.9292819192540608e-02  -1.9930787241830027e-02  -1.8107274108713056e-02  -2.1580855686725596e-02  -2.1890670856378681e-02  -2.0352093632714511e-02  -1.6385317511091731e-02  -1.9030605072532691e-02  -2.0799256021597070e-02  -1.8136067504245484e-02  -1.6097453744334463e-02  -1.8498864139263882e-02  -1.9102958075015580e-02  -1.6440399635244886e-02  -1.8743826581243930e-02  -2.0893317082585440e-02  -2.1410141786852691e-02  -2.0176938576942277e-02  -2.0077726515873688e-02  -1.8988238553391219e-02  -2.1277215767250824e-02  -1.6787853595090843e-02  -8.4255483381207152e-03  -2.1091772647028675e-02  -8.4772195209452221e-03  -1.4327667168754494e-02  -1.7541278507227066e-02  -1.4869966072465522e-02  -1.7689411456958151e-02  -1.9962677081118103e-02  -2.0506658596528369e-02  -1.8799452896284697e-02  -1.6920104847555652e-02  -1.8605285689048633e-02  -1.9244232141471841e-02  -1.0097746725042852e-02  -2.3123756926791028e-02  -2.3509313847738911e-02  -1.7293523527608375e-02  -1.9740765185270185e-02  -1.9221728572788158e-02  -1.7532181432841548e-02  -1.8476902006777159e-02  -2.0921961264953857e-02  -1.9179032001102488e-02  -2.0861678466298942e-02  -2.1290663905172480e-02  -2.2676878496911426e-02  -2.4236391959575786e-02  -2.4829761660482712e-02  -1.9916025110042902e-02  -2.2047326540634096e-02  -2.2256957224722294e-02  -2.2600602638221896e-02  -2.4565157464653355e-02  -2.5620798105952618e-02  -2.2858873909845003e-02  -1.9270797016243849e-02  -1.6875178486630782e-02  -2.4213758446383786e-02  -2.3459488917576175e-02  -2.2364893205060157e-02  -2.5182660879291718e-02  -2.2115768623590885e-02  -2.2037454823816981e-02  -2.3697804327492338e-02  -2.5604608202694477e-02  -2.2822885194770982e-02  -2.2232799464299798e-02  -2.3855865080062662e-02  -2.1019530517069233e-02  -2.3129649055283322e-02  -2.0394613432433661e-02  -2.2705921746455374e-02  -2.4567615400658483e-02  -2.6013882255921248e-02  -2.4538854581952620e-02  -2.1382430828884632e-02  -1.8093092112205070e-02  -2.3056437072730650e-02  -2.3681712240685698e-02  -2.1623920065059091e-02  -2.7014966602864284e-02  -2.7024888050527444e-02  -2.7108797037087375e-02  -2.7136535712169115e-02  -2.3162254864235201e-02  -9.6846432721074977e-03  -7.9539362476212030e-03  -1.9768740217537981e-02  -2.3769439843737247e-02  -2.4166076763628912e-02  -2.2981899772944330e-02  -2.5886579995625169e-02  -2.2565945921603211e-02  -2.2135164116242934e-02  -1.8572216997958968e-02  -1.7578869138858803e-02  -2.2272670848127944e-02  -1.7247560522694379e-02  -8.7925454317408520e-03  -8.8673292091623317e-03  -1.2209573539722454e-02  -2.0274320807062603e-02  -2.2097372506478700e-02  -1.8940545162630412e-02  -2.0151608372850235e-02  -1.8957145983813786e-02  -2.3230983381377860e-02  -2.3068936068197515e-02  -9.2320826477570294e-03  -2.3458969018245304e-02  -1.9391123510816961e-02  -2.0351454861882379e-02  -1.6205044165962235e-02  -2.2070225202067837e-02  -1.6421176908443077e-02  -1.2174158233026307e-02  -2.3495774643443112e-02  -7.6276983351279510e-03  -1.5447612878689171e-02  -2.5075246497203850e-02  -1.6826538986436653e-02  -1.9263685074742048e-02  -1.9805708655443961e-02  -9.5029693207590391e-03  -2.3395505067155379e-02  -2.1101351528032143e-02  -1.9105305472143667e-02  -7.3735661091273467e-03  -2.0609244403261961e-02  -1.9283048059710303e-02  -7.9369289319075054e-03  -1.5979813941329642e-02  -1.8938680128649778e-02  -7.4290084060679787e-03  -1.6259249015284909e-02  -2.1187261273377864e-02  -2.1686368199034769e-02  -1.8316295817518782e-02  -1.5320779153961243e-02  -1.9368370899496720e-02  -2.3888969618786483e-02  -1.6685840768409812e-02  -2.8286672728050365e-02  -2.8380259259828143e-02  -2.8270136581437670e-02  -2.8449620053333440e-02  -2.1181102718125077e-02  -2.3434678487007834e-02  -2.1140799194604945e-02  -2.2597150754246061e-02  -1.9745046686221839e-02  -1.5236147045360564e-02  -2.2874871264571876e-02  -2.1833610299053959e-02  -1.8356182177411629e-02  -1.4313660256223977e-02  -1.5623423446376277e-02  -1.3948328162039118e-02  -2.1731854497941541e-02  -1.4274100949626223e-02  -1.9504692356947149e-02  -1.3835724535376419e-02  -7.5519471728803869e-03  -1.8944631600993554e-02  -1.6124779746985889e-02  -1.7820019490317231e-02  -1.9271074403186910e-02  -1.5349799902482402e-02  -1.4419984409664823e-02  -8.6835430485715272e-03  -2.4230781952351416e-02  -3.1734906439091201e-02  -3.2110126398884824e-02  -3.4042741060444762e-02  -3.6531677463265862e-02  -3.4021095098919103e-02  -3.7133426667686084e-02  -3.2053557340584841e-02  -3.3714425795477787e-02  -3.2009173424044170e-02  -3.3787492954838308e-02  -3.6657725520747003e-02  -3.6433248178475874e-02  -1.6960977529474501e-02  -1.5093935372279051e-02  -1.8234527889002067e-02  -1.5725079310789578e-02  -3.2319942437012708e-02  -3.5859303682816632e-02  -3.6009021195544257e-02  -3.2329450342391465e-02  -4.0801223963642302e-02  -4.6066980905958024e-02  -3.2915753182614610e-02  -3.2802278813078518e-02  -3.7673761403051648e-02  -4.7455385910595116e-02  -4.9900042947569306e-02  -4.9629816383293800e-02  -5.1396326120287640e-02  -5.1530386299612541e-02  -1.7481748150735620e-02  -1.6975209786549348e-02  -1.7487691514457483e-02  -1.6969683514787282e-02  -1.7403970249163989e-02  -1.6942907532584737e-02  -1.7995445450797148e-02  -5.1317870752515864e-02  -5.1633228103830059e-02  -4.9696472545157244e-02  -4.8026104001846474e-02  -1.9107323550591599e-02  -1.8436091925997749e-02  -1.7674455738823116e-02  -1.7232454196924249e-02  -1.8689942246233632e-02  -1.7572385010573118e-02  -2.0268461606701167e-02  -1.5966807969458711e-02  -4.8118404400137628e-02  -4.7038828226438172e-02  -1.7914924204134239e-02  -1.6087657275165465e-02  -1.7942737362668323e-02  -4.1116173712559191e-02  -4.5850504446782583e-02  -4.8214594205750090e-02  -5.0310961308858398e-02  -5.1224544292824192e-02  -5.1470811258943878e-02  -5.0790961142412321e-02  -5.1241256541565292e-02  -5.1239666851727601e-02  -4.9718602312391218e-02  -4.1032342499370857e-02  -4.6084607982638047e-02  -4.8237924560317787e-02  -5.0338478378619378e-02  -4.9091881542678656e-02  -5.1281741803570674e-02  -5.1547031651652912e-02  -5.1459572345422519e-02  -5.1366987599907897e-02  -5.0070184376383227e-02  -3.4217563123709147e-02  -4.0870359378220637e-02  -4.6135849640273938e-02  -4.7557549512536580e-02  -5.0082548772864534e-02  -4.9787021194759154e-02  -5.1576894705244757e-02  -5.1720103263152406e-02  -5.1573011746271255e-02  -5.1685095199737498e-02  -3.1662176233342852e-02  -3.2071046654898426e-02  -3.3594951235819459e-02  -3.3642858664902686e-02  -5.0798296947168357e-02  -4.9917515523111432e-02  -4.9874046007640352e-02  -4.9757156828091322e-02  -4.9656977136589592e-02  -5.0011210988892427e-02  -1.8068497179738571e-02  -4.9405824853290183e-02  -5.1242830919883339e-02  -4.9459571439373268e-02  -4.9125305232814560e-02  -5.0652309984041181e-02  -5.0355688462687738e-02  -3.4206742749598555e-02  -4.6075104203517840e-02  -4.6051406606102394e-02  -1.4818505608345774e-02  -1.3814587884386593e-02  -1.4830383044393013e-02  -4.5265112495392890e-02  -4.6099178863744594e-02  -4.4238084759509334e-02  -4.3541510326722446e-02  -4.7855477445371032e-02  -4.9513152625574292e-02  -4.7420945565896412e-02  -4.8988311065128368e-02  -4.6032507612018631e-02  -4.8891354857602813e-02  -4.5342826088011108e-02  -4.7745024721107511e-02  -4.4222178579476655e-02  -4.5882742137331581e-02  -4.6045844709611802e-02  -4.8742001837748898e-02  -4.5243997845562760e-02  -4.7376906038617092e-02  -4.4075626715161909e-02  -4.5902113228076136e-02  -4.2874158561668312e-02  -4.4665007726676378e-02  -4.1939407883166871e-02  -4.3819098337902540e-02  -4.1286368408984996e-02  -4.3433694788554432e-02  -4.0996343115292801e-02  -4.3574611049796111e-02  -4.2849124647809496e-02  -4.4541447994971339e-02  -4.1813255841388175e-02  -4.3650541040345686e-02  -4.1113382973147497e-02  -4.3244904265892267e-02  -4.0773611083964385e-02  -4.3393423881089785e-02  -4.5552999025704144e-02  -4.5365346628216813e-02  -4.9067572241452535e-02  -4.8890230701610117e-02  -4.5243962524414143e-02  -4.4789549685038489e-02  -4.1394568748789655e-02  -4.4257072311228815e-02  -4.2035829629410937e-02  -4.5268643132604862e-02  -4.2766889648301887e-02  -4.1147576348770941e-02  -4.4032004550533133e-02  -4.1699677565004326e-02  -4.4988553611589772e-02  -4.2375148477537199e-02  -4.9954435394231674e-02  -4.6676127855068646e-02  -4.5882980794080749e-02  -4.4509746072283356e-02  -4.5835376151032045e-02  -4.4650221619369969e-02  -4.6008716165492451e-02  -4.2783367636233478e-02  -3.9588204007415750e-02  -4.3027882122449013e-02  -3.9630925108754808e-02  -4.3461372754742919e-02  -3.5906431057335417e-02  -4.3602334903596753e-02  -4.4715038571625988e-02  -4.0981442418517380e-02  -3.9674276186936155e-02  -3.5721144029812649e-02  -4.4548249816660689e-02  -4.0040285412071892e-02  -4.6009744353238360e-02  -3.9060975822976761e-02  -4.6119466740261926e-02  -3.7812566642372765e-02  -3.7946144719206681e-02  -3.7063005245162706e-02  -4.3090353083383451e-02  -3.8471347537364795e-02  -4.2844675752312579e-02  -3.0696834566714615e-02  -5.0033309551494987e-02  -1.1705041000597010e-02  -4.5771501081147234e-02  -5.0062753984244354e-02  -3.7793056560600995e-02  -3.6853202624702042e-02  -4.1533627653491334e-02  -3.7774987813484824e-02  -4.5580417264039712e-02  -4.5546359139219880e-02  -4.4742440822138588e-02  -4.8167634576437711e-02  -4.6348009844401371e-02  -4.7260245509806308e-02  -4.5771106672279308e-02  -4.3930308101491886e-02  -4.2881344954833714e-02  -4.5886067999872215e-02  -4.4187674527539640e-02  -4.1840363001798178e-02  -4.2586391690203278e-02  -4.0884109379895554e-02  -4.1642395681626032e-02  -4.0476404966408287e-02  -4.1129210052864650e-02  -4.0534100955443721e-02  -4.1067875323490363e-02  -3.7771728163115879e-02  -4.2446529741631697e-02  -4.3226505439067732e-02  -4.2111598230438869e-02  -3.1039464043181093e-02  -4.0945167777811972e-02  -3.7699951627365474e-02  -3.8519094862114064e-02  -3.6331857564435341e-02  -1.0675748655742128e-02  -1.2449776047606803e-02  -1.1783829711420087e-02  -4.4991451863433132e-02  -3.8747563564615978e-02  -4.8762279397301225e-02  -4.3632715730253437e-02  -4.6731284969367015e-02  -3.2591709658339255e-02  -3.3283264157608849e-02  -3.4191133303553028e-02  -3.9778031038698036e-02  -4.3265939363029797e-02  -4.6266104319657886e-02  -4.4559031614929863e-02  -3.9825230624190411e-02  -4.2329436204414039e-02  -4.2942226326412293e-02  -4.2184877329951527e-02  -4.0338627895244360e-02  -4.1440491781321094e-02  -3.7973992618137810e-02  -4.0546541789072757e-02  -4.0957010929320879e-02  -4.1412458633670303e-02  -3.9552225538737572e-02  -4.1971781006525939e-02  -3.8413912921933933e-02  -4.2136798959438775e-02  -4.2625573693659484e-02  -4.4064668768984301e-02  -4.2073075154904924e-02  -4.5543983526786166e-02  -4.1402851852175890e-02  -4.6447468009587892e-02  -3.9791827575046519e-02  -4.4891788763146583e-02  -4.2421984647145639e-02  -4.4307126534268382e-02  -4.1576670063459081e-02  -4.8897115534340334e-02  -4.7396822135797011e-02  -3.7076638621086018e-02  -3.4393522429358149e-02  -4.2444937067970763e-02  -4.1608407969333225e-02  -4.7494115255716340e-02  -4.0076272140915303e-02  -4.7428761634187529e-02  -3.6203245013774532e-02  -3.8613211576605917e-02  -4.1456167395553280e-02  -4.6985266040189523e-02  -3.5317072946518063e-02  -4.1998669667920825e-02  -3.9368702570972088e-02  -3.6468439163745078e-02  -3.6649261525723058e-02  -3.8599057864635529e-02  -4.2263034397163772e-02  -3.7515831899496262e-02  -4.0694092326990658e-02  -3.96887463480