<?xml version="1.0"?>
<VTKFile type="UnstructuredGrid"  version="0.1"  >
<UnstructuredGrid>
<Piece  NumberOfPoints="1297" NumberOfCells="2496">
<Points>
<DataArray  type="Float64"  NumberOfComponents="3"  format="ascii">0 0 0  0 1 0  1 1 0  1 0 0  1.1 -0.1 0  -0.1 -0.1 0  1.1 1.1 0  -0.1 1.1 0  0.3077682532894904 0.6583928558324266 0  0.3083915198436871 0.3421099208431034 0  0.6933801111226645 0.3411067781511313 0  0.6934314529850908 0.6592191082517436 0  0.5005504168805869 0.5001829224556069 0  0 0.9499999999997918 0  0 0.8999999999995836 0  0 0.8499999999996529 0  0 0.7999999999999998 0  0 0.7500000000003466 0  0 0.7000000000006934 0  0 0.6500000000010401 0  0 0.6000000000013869 0  0 0.5500000000017335 0  0 0.5000000000020587 0  0 0.4500000000018723 0  0 0.4000000000016644 0  0 0.3500000000014564 0  0 0.3000000000012483 0  0 0.2500000000010403 0  0 0.2000000000008322 0  0 0.1500000000006241 0  0 0.100000000000416 0  0 0.05000000000020799 0  0.04999999999989965 0 0  0.09999999999981467 0 0  0.1499999999997036 0 0  0.1999999999995579 0 0  0.2499999999994121 0 0  0.2999999999992664 0 0  0.3499999999991206 0 0  0.3999999999989749 0 0  0.4499999999988292 0 0  0.4999999999986943 0 0  0.5499999999988151 0 0  0.5999999999989468 0 0  0.6499999999990784 0 0  0.69999999999921 0 0  0.7499999999993417 0 0  0.7999999999994734 0 0  0.8499999999996051 0 0  0.8999999999997368 0 0  0.9499999999998684 0 0  1 0.04999999999989965 0  1 0.09999999999981467 0  1 0.1499999999997036 0  1 0.1999999999995579 0  1 0.2499999999994121 0  1 0.2999999999992664 0  1 0.3499999999991206 0  1 0.3999999999989749 0  1 0.4499999999988292 0  1 0.4999999999986943 0  1 0.5499999999988151 0  1 0.5999999999989468 0  1 0.6499999999990784 0  1 0.69999999999921 0  1 0.7499999999993417 0  1 0.7999999999994734 0  1 0.8499999999996051 0  1 0.8999999999997368 0  1 0.9499999999998684 0  0.9499999999997918 1 0  0.8999999999995836 1 0  0.8499999999996529 1 0  0.7999999999999998 1 0  0.7500000000003466 1 0  0.7000000000006934 1 0  0.6500000000010401 1 0  0.6000000000013869 1 0  0.5500000000017335 1 0  0.5000000000020587 1 0  0.4500000000018723 1 0  0.4000000000016644 1 0  0.3500000000014564 1 0  0.3000000000012483 1 0  0.2500000000010403 1 0  0.2000000000008322 1 0  0.1500000000006241 1 0  0.100000000000416 1 0  0.05000000000020799 1 0  -0.1 1.05000000000004 0  -0.1 1.000000000000079 0  -0.1 0.9500000000001624 0  -0.1 0.9000000000003032 0  -0.1 0.850000000000444 0  -0.1 0.8000000000005848 0  -0.1 0.7500000000007256 0  -0.1 0.7000000000008665 0  -0.1 0.6500000000010508 0  -0.1 0.6000000000012352 0  -0.1 0.5500000000014196 0  -0.1 0.500000000001539 0  -0.1 0.4500000000014195 0  -0.1 0.4000000000013 0  -0.1 0.3500000000011588 0  -0.1 0.3000000000010178 0  -0.1 0.2500000000008986 0  -0.1 0.2000000000007579 0  -0.1 0.1500000000006174 0  -0.1 0.1000000000005272 0  -0.1 0.05000000000040083 0  -0.1 2.671196597248127e-13 0  -0.1 -0.0499999999998666 0  -0.0500000000000906 -0.1 0  -1.730560139634463e-13 -0.1 0  0.04999999999975802 -0.1 0  0.09999999999961506 -0.1 0  0.1499999999994613 -0.1 0  0.199999999999302 -0.1 0  0.2499999999991446 -0.1 0  0.2999999999990088 -0.1 0  0.3499999999988296 -0.1 0  0.3999999999986936 -0.1 0  0.4499999999985143 -0.1 0  0.4999999999984002 -0.1 0  0.5499999999985247 -0.1 0  0.5999999999986493 -0.1 0  0.6499999999987955 -0.1 0  0.6999999999989417 -0.1 0  0.7499999999990659 -0.1 0  0.7999999999992116 -0.1 0  0.8499999999993573 -0.1 0  0.8999999999994526 -0.1 0  0.949999999999584 -0.1 0  0.9999999999997226 -0.1 0  1.049999999999861 -0.1 0  1.1 -0.0500000000000906 0  1.1 -1.730560139634463e-13 0  1.1 0.04999999999975802 0  1.1 0.09999999999961506 0  1.1 0.1499999999994613 0  1.1 0.199999999999302 0  1.1 0.2499999999991446 0  1.1 0.2999999999990088 0  1.1 0.3499999999988296 0  1.1 0.3999999999986936 0  1.1 0.4499999999985143 0  1.1 0.4999999999984002 0  1.1 0.5499999999985247 0  1.1 0.5999999999986493 0  1.1 0.6499999999987955 0  1.1 0.6999999999989417 0  1.1 0.7499999999990659 0  1.1 0.7999999999992116 0  1.1 0.8499999999993573 0  1.1 0.8999999999994526 0  1.1 0.949999999999584 0  1.1 0.9999999999997226 0  1.1 1.049999999999861 0  1.05000000000004 1.1 0  1.000000000000079 1.1 0  0.9500000000001624 1.1 0  0.9000000000003032 1.1 0  0.850000000000444 1.1 0  0.8000000000005848 1.1 0  0.7500000000007256 1.1 0  0.7000000000008665 1.1 0  0.6500000000010508 1.1 0  0.6000000000012352 1.1 0  0.5500000000014196 1.1 0  0.500000000001539 1.1 0  0.4500000000014195 1.1 0  0.4000000000013 1.1 0  0.3500000000011588 1.1 0  0.3000000000010178 1.1 0  0.2500000000008986 1.1 0  0.2000000000007579 1.1 0  0.1500000000006174 1.1 0  0.1000000000005272 1.1 0  0.05000000000040083 1.1 0  2.671196597248127e-13 1.1 0  -0.0499999999998666 1.1 0  0.298194375895841 0.6460521413397152 0  0.2876297766969296 0.6298821597582352 0  0.2778359107982254 0.61144017731091 0  0.2693450792091299 0.591090313846471 0  0.2625562143599486 0.5694293367698067 0  0.2576279295676515 0.5467857144724426 0  0.2546559519841275 0.5235227993505822 0  0.2537123343949903 0.5000354636989747 0  0.2547835106883293 0.4764763490970378 0  0.2578730119807703 0.4532181019551923 0  0.2629303052041588 0.4306308710174949 0  0.2698406392842722 0.4090471000743464 0  0.2784267091140946 0.3888083986581281 0  0.2883035899188144 0.3704139792762965 0  0.2988965239153964 0.3543117007071312 0  0.31878717937005 0.3306167272145693 0  0.3325078906947913 0.3177011975224163 0  0.3486780597682319 0.3049847575349016 0  0.3668408084674543 0.2932088601183262 0  0.386662308408786 0.2827913365346241 0  0.4078212861056091 0.2740054734536526 0  0.4300272474140019 0.2670187630378564 0  0.4529899843838022 0.2619238910286507 0  0.4764838227277436 0.2587890382807591 0  0.5002224531684291 0.2576569350754306 0  0.523996037347896 0.2585375708443642 0  0.5475543898213694 0.2614235253858029 0  0.5706282726669095 0.2662846680152345 0  0.5929503412202657 0.2730774278723907 0  0.6142553769659314 0.2817003242443713 0  0.6342545735606102 0.2920045619041243 0  0.6526091004456476 0.3037438205118863 0  0.6689786169050789 0.316501948392968 0  0.6828252095494578 0.3294675449981945 0  0.7030667867307232 0.3535549031178107 0  0.7136210746896148 0.3696794395119213 0  0.7235206688187089 0.3882691660773414 0  0.7320876874738108 0.4087431772980873 0  0.7389285987833466 0.4305022179996518 0  0.7438899972830475 0.4531792917524555 0  0.7468998332882136 0.4764665834591801 0  0.7479167119612035 0.5000665427455273 0  0.7469211755244157 0.5236817192651719 0  0.743924321918371 0.547052094648569 0  0.7389803390362474 0.5697350885260515 0  0.7321382760280126 0.5915283267318683 0  0.7236089509436757 0.611964464548148 0  0.713713776023268 0.6305786972636058 0  0.70315359756888 0.6467249509005786 0  0.6828617362935602 0.6708752461672274 0  0.6689698991460354 0.683883487974324 0  0.6526248472256266 0.696639477586838 0  0.6342945098302017 0.7083784737086166 0  0.6143255313045068 0.718688742532963 0  0.5930315364107858 0.7273292212413978 0  0.5706894350146493 0.7341614723128855 0  0.5476139875206587 0.7390572932203918 0  0.5240500280936116 0.7419755166934601 0  0.5002566602308844 0.7428905931926867 0  0.4764925506688105 0.74179667620014 0  0.452997109497715 0.7387057404132764 0  0.4299907672323171 0.7336531996417127 0  0.4077187470456294 0.7266998930376692 0  0.3865093079756412 0.7179596805972879 0  0.3665857792062531 0.7075428286775577 0  0.3482962185625217 0.6957257482235129 0  0.3320259200653228 0.6829553133629431 0  0.3182205209496676 0.6699642167312964 0  0.3782997808752037 0.3141225416470231 0  0.2845164296778471 0.4418364490949295 0  0.3781315395402333 0.6864927134819554 0  0.2842305879422528 0.5582882901565671 0  0.7141350194618227 0.5805805658760753 0  0.6021683780398386 0.6963755263611842 0  0.6219142302717329 0.3123943165961224 0  0.7187546499656355 0.4409874090854531 0  0.7229027165867064 0.5113056574038329 0  0.557435454900692 0.2914970514276682 0  0.4436120465736809 0.2944008331465129 0  0.4422487338707831 0.7064521483254343 0  0.5351788704654339 0.7109237161642499 0  0.2793383976368056 0.4882756924636452 0  0.293992514009901 0.3980965574227666 0  0.4888876102117541 0.2918519232343563 0  0.2987386032995775 0.6007415248340469 0  0.7018621636761146 0.395721574770435 0  0.488683746423658 0.7124633022924324 0  0.6424629552399709 0.678489718548986 0  0.3405206451930715 0.3350483875508485 0  0.661126132201921 0.3355547827707793 0  0.3406096349459475 0.6678922191004975 0  0.6979208609280256 0.6241964716696521 0  0.3097226795593007 0.3595111282397983 0  0.3108429274637777 0.6400501287057965 0  0.6771977958888252 0.6592289292823758 0  0.6924454222340269 0.3584354352929229 0  0.3586842808052094 0.677402672819761 0  0.368743807975031 0.6587252673329773 0  0.3890637344581483 0.665160488827239 0  0.3782042340259884 0.6382217802420679 0  0.4000919272648245 0.6430421825283762 0  0.3875684310682654 0.6142057245774116 0  0.4144221474131651 0.6180810113444578 0  0.3988087597215347 0.5844229977880557 0  0.3615013661989601 0.6092346029466765 0  0.4320497637544951 0.5867097211775888 0  0.4124436376356659 0.5489716359201781 0  0.3732777922866155 0.5531438752774019 0  0.3896575322294405 0.5144616312221055 0  0.3520591214973671 0.5162131470774417 0  0.3652044287098131 0.4820307235803693 0  0.4046084470340555 0.4763361048483552 0  0.3841162082723861 0.4439162542390087 0  0.4195432644137628 0.4372512538163966 0  0.4000623447597561 0.4065222559893082 0  0.4321760328261939 0.3922289849113768 0  0.3670726179898775 0.4103377291046791 0  0.4087275427343608 0.3718361437368874 0  0.4408606840805658 0.6225713679516518 0  0.4662101732379169 0.5963981345742896 0  0.4842941443773121 0.6252078972393855 0  0.5026355792644591 0.5986408686811319 0  0.5200693872740472 0.6254470398959044 0  0.5381951478990062 0.5985942382392065 0  0.555244312921123 0.6247319327258674 0  0.5731139182749851 0.5981564588381949 0  0.5903853995595176 0.6256712050649071 0  0.6073837673733707 0.590097436513923 0  0.5920580358867846 
[...]
<PointData  Scalars="state"> 
<DataArray  type="Float64"  Name="state"  format="ascii">0.0000000000000000e+00  0.0000000000000000e+00  0.0000000000000000e+00  0.0000000000000000e+00  0.0000000000000000e+00  0.0000000000000000e+00  0.0000000000000000e+00  0.0000000000000000e+00  -3.0862429278473158e-02  -3.0829217995196220e-02  -3.0998887267358437e-02  -3.1022579633119232e-02  -6.8929307635374228e-03  0.0000000000000000e+00  0.0000000000000000e+00  0.0000000000000000e+00  0.0000000000000000e+00  0.0000000000000000e+00  0.0000000000000000e+00  0.0000000000000000e+00  0.0000000000000000e+00  0.0000000000000000e+00  0.0000000000000000e+00  0.0000000000000000e+00  0.0000000000000000e+00  0.0000000000000000e+00  0.0000000000000000e+00  0.0000000000000000e+00  0.0000000000000000e+00  0.0000000000000000e+00  0.0000000000000000e+00  0.0000000000000000e+00  0.0000000000000000e+00  0.0000000000000000e+00  0.0000000000000000e+00  0.0000000000000000e+00  0.0000000000000000e+00  0.0000000000000000e+00  0.0000000000000000e+00  0.0000000000000000e+00  0.0000000000000000e+00  0.0000000000000000e+00  0.0000000000000000e+00  0.0000000000000000e+00  0.0000000000000000e+00  0.0000000000000000e+00  0.0000000000000000e+00  0.0000000000000000e+00  0.0000000000000000e+00  0.0000000000000000e+00  0.0000000000000000e+00  0.0000000000000000e+00  0.0000000000000000e+00  0.0000000000000000e+00  0.0000000000000000e+00  0.0000000000000000e+00  0.0000000000000000e+00  0.0000000000000000e+00  0.0000000000000000e+00  0.0000000000000000e+00  0.0000000000000000e+00  0.0000000000000000e+00  0.0000000000000000e+00  0.0000000000000000e+00  0.0000000000000000e+00  0.0000000000000000e+00  0.0000000000000000e+00  0.0000000000000000e+00  0.0000000000000000e+00  0.0000000000000000e+00  0.0000000000000000e+00  0.0000000000000000e+00  0.0000000000000000e+00  0.0000000000000000e+00  0.0000000000000000e+00  0.0000000000000000e+00  0.0000000000000000e+00  0.0000000000000000e+00  0.0000000000000000e+00  0.0000000000000000e+00  0.0000000000000000e+00  0.0000000000000000e+00  0.0000000000000000e+00  0.0000000000000000e+00  0.0000000000000000e+00  0.0000000000000000e+00  0.0000000000000000e+00  0.0000000000000000e+00  0.0000000000000000e+00  0.0000000000000000e+00  0.0000000000000000e+00  0.0000000000000000e+00  0.0000000000000000e+00  0.0000000000000000e+00  0.0000000000000000e+00  0.0000000000000000e+00  0.0000000000000000e+00  0.0000000000000000e+00  0.0000000000000000e+00  0.0000000000000000e+00  0.0000000000000000e+00  0.0000000000000000e+00  0.0000000000000000e+00  0.0000000000000000e+00  0.0000000000000000e+00  0.0000000000000000e+00  0.0000000000000000e+00  0.0000000000000000e+00  0.0000000000000000e+00  0.0000000000000000e+00  0.0000000000000000e+00  0.0000000000000000e+00  0.0000000000000000e+00  0.0000000000000000e+00  0.0000000000000000e+00  0.0000000000000000e+00  0.0000000000000000e+00  0.0000000000000000e+00  0.0000000000000000e+00  0.0000000000000000e+00  0.0000000000000000e+00  0.0000000000000000e+00  0.0000000000000000e+00  0.0000000000000000e+00  0.0000000000000000e+00  0.0000000000000000e+00  0.0000000000000000e+00  0.0000000000000000e+00  0.0000000000000000e+00  0.0000000000000000e+00  0.0000000000000000e+00  0.0000000000000000e+00  0.0000000000000000e+00  0.0000000000000000e+00  0.0000000000000000e+00  0.0000000000000000e+00  0.0000000000000000e+00  0.0000000000000000e+00  0.0000000000000000e+00  0.0000000000000000e+00  0.0000000000000000e+00  0.0000000000000000e+00  0.0000000000000000e+00  0.0000000000000000e+00  0.0000000000000000e+00  0.0000000000000000e+00  0.0000000000000000e+00  0.0000000000000000e+00  0.0000000000000000e+00  0.0000000000000000e+00  0.0000000000000000e+00  0.0000000000000000e+00  0.0000000000000000e+00  0.0000000000000000e+00  0.0000000000000000e+00  0.0000000000000000e+00  0.0000000000000000e+00  0.0000000000000000e+00  0.0000000000000000e+00  0.0000000000000000e+00  0.0000000000000000e+00  0.0000000000000000e+00  0.0000000000000000e+00  0.0000000000000000e+00  0.0000000000000000e+00  0.0000000000000000e+00  0.0000000000000000e+00  0.0000000000000000e+00  0.0000000000000000e+00  0.0000000000000000e+00  0.0000000000000000e+00  0.0000000000000000e+00  0.0000000000000000e+00  0.0000000000000000e+00  0.0000000000000000e+00  0.0000000000000000e+00  0.0000000000000000e+00  0.0000000000000000e+00  0.0000000000000000e+00  0.0000000000000000e+00  0.0000000000000000e+00  -3.0085110880590824e-02  -2.9682477296706335e-02  -2.9210049204344550e-02  -2.8717847192879301e-02  -2.8302964820502246e-02  -2.7981952873299108e-02  -2.7733179509099388e-02  -2.7768088148262045e-02  -2.7793290425072059e-02  -2.8033119265347302e-02  -2.8365805306789556e-02  -2.8745751256724156e-02  -2.9113923690010576e-02  -2.9547659734017948e-02  -2.9965668664397503e-02  -3.0358925885451526e-02  -3.0069653466030553e-02  -2.9805235434888146e-02  -2.9534988591144638e-02  -2.9268542309670582e-02  -2.8908566632404493e-02  -2.8559048907014717e-02  -2.8335723112788810e-02  -2.8129882763157612e-02  -2.8076680161372457e-02  -2.8137430600856300e-02  -2.8324002646678656e-02  -2.8609127324640646e-02  -2.8932001463019316e-02  -2.9362318787189159e-02  -2.9728861647293523e-02  -2.9988410749827346e-02  -3.0249786150364864e-02  -3.0520045468101227e-02  -3.0301641772970081e-02  -2.9783412871264094e-02  -2.9308670925224999e-02  -2.8793497625106513e-02  -2.8372289363293814e-02  -2.8040486262904351e-02  -2.7851252080439533e-02  -2.7759867228161313e-02  -2.7838026152498887e-02  -2.8105516622242456e-02  -2.8433949866580172e-02  -2.8814456236423765e-02  -2.9356301771600174e-02  -2.9843138207656102e-02  -3.0358392686192039e-02  -3.0508019696595796e-02  -3.0224005483611902e-02  -3.0006249827035959e-02  -2.9722378396275343e-02  -2.9345691638691624e-02  -2.8892515196170872e-02  -2.8570887890304215e-02  -2.8244254127480186e-02  -2.8037830963438874e-02  -2.8002659865797312e-02  -2.8090903407214478e-02  -2.8264721698926663e-02  -2.8452322630854308e-02  -2.8816327146704783e-02  -2.9199685977986719e-02  -2.9499454170770538e-02  -2.9814628727729917e-02  -3.0095094590547787e-02  -3.0374250839071144e-02  -2.4143423837979610e-02  -2.3288786669051945e-02  -2.4125428628821392e-02  -2.3285061599772172e-02  -2.4238047244427061e-02  -2.3743280981155870e-02  -2.4282922698131870e-02  -2.3551134472716739e-02  -2.2837872762292013e-02  -2.2868845005175317e-02  -2.2460685056806540e-02  -2.2459702280508784e-02  -2.2280833013571387e-02  -2.2750617658267379e-02  -2.4834705672319594e-02  -2.1540117466880549e-02  -2.3911763047460975e-02  -2.4193530508970388e-02  -2.2081941254614487e-02  -2.5056153805786432e-02  -2.5500648491965257e-02  -2.5398664993253807e-02  -2.5784856781161065e-02  -2.5661143747914127e-02  -2.6757611727694471e-02  -2.6264761774946882e-02  -2.7037861199926409e-02  -2.6962294909726445e-02  -2.4881431395322763e-02  -2.1666664304880269e-02  -2.0659092406301871e-02  -1.8903186344589654e-02  -1.7723065844337849e-02  -1.6158449095661036e-02  -1.4679475882118336e-02  -1.3256960040618535e-02  -1.7864518362149133e-02  -1.1423012376610748e-02  -1.0518053838160691e-02  -1.3582958338608850e-02  -1.1229931651057661e-02  -1.4579092181649683e-02  -1.3391825676536306e-02  -1.0329374570926381e-02  -1.2801268880415833e-02  -1.0719370241368946e-02  -1.3809548397867041e-02  -1.2990006458370812e-02  -1.6152161603399637e-02  -1.6069232408950137e-02  -1.3731584507277761e-02  -1.0847243122520280e-02  -1.2883396130525483e-02  -1.0641679611854400e-02  -1.3001237266035385e-02  -1.1153864460053009e-02  -1.3825233907068952e-02  -1.2435463133066715e-02  -1.5525945440158822e-02  -1.3926960552245229e-02  -1.1038075016534834e-02  -1.3570229604295561e-02  -1.1148905340567615e-02  -1.6427812013557922e-02  -1.6757708440731687e-02  -1.7390246781971399e-02  -1.6734658697290909e-02  -1.6655902752144451e-02  -1.7932245358305749e-02  -1.5418399901360581e-02  -1.2583943471502402e-02  -1.9805591042657222e-02  -1.8152857225651194e-02  -1.6265608047055576e-02  -1.7014909261601638e-02  -1.5752780400357092e-02  -1.2148795713772934e-02  -1.6071482973562114e-02  -1.3050042625561021e-02  -9.7243366303277554e-03  -1.1661696148655859e-02  -1.4500226195293823e-02  -1.4014191801875821e-02  -1.0457427803353320e-02  -1.3604668996475073e-02  -1.6355808552793796e-02  -1.6461481459385877e-02  -1.4686095078978624e-02  -1.8759723128890005e-02  -1.9341366975394295e-02  -2.1187006194686088e-02  -2.1235251637275743e-02  -9.0231433131857785e-03  -1.9445700454388364e-02  -1.9258869216364789e-02  -1.9943502232822732e-02  -1.8133019067898614e-02  -2.1540939185643048e-02  -2.1830172673664199e-02  -2.0303801834307533e-02  -1.6391562770923185e-02  -1.9055521561424076e-02  -2.0834487187096514e-02  -1.8149750956421733e-02  -1.6107422026707889e-02  -1.8490341217309251e-02  -1.9073103887741506e-02  -1.6465173178152111e-02  -1.8768951033859494e-02  -2.0864688679021498e-02  -2.1357536318856840e-02  -2.0131813543018493e-02  -2.0106941409906001e-02  -1.8992562838978398e-02  -2.1332264239632623e-02  -1.6784335852863288e-02  -8.4206551118730707e-03  -2.1089157182948407e-02  -8.4755896608691775e-03  -1.4342959166156558e-02  -1.7573812978935132e-02  -1.4888165915616768e-02  -1.7718267943350439e-02  -2.0011602931809626e-02  -2.0548949057504692e-02  -1.8814375837040348e-02  -1.6898347822048691e-02  -1.8582731320049548e-02  -1.9287283438169274e-02  -1.0100483988461691e-02  -2.3047659199297132e-02  -2.3437902690997815e-02  -1.7266168538478892e-02  -1.9702847997206171e-02  -1.9186030113053896e-02  -1.7511413337799004e-02  -1.8472140534595265e-02  -2.0890911414678588e-02  -1.9159088391333186e-02  -2.0813507625012460e-02  -2.1278011829257863e-02  -2.2607049295496260e-02  -2.4147677915041063e-02  -2.4752923438181487e-02  -1.9967838598950013e-02  -2.2099753957234257e-02  -2.2303807034367889e-02  -2.2530359747396624e-02  -2.4468988799127782e-02  -2.5534232552017092e-02  -2.2871570563002565e-02  -1.9274001122277340e-02  -1.6865185178491046e-02  -2.4169252505815905e-02  -2.3446333397568096e-02  -2.2375550316435382e-02  -2.5105551156340899e-02  -2.2126568299236017e-02  -2.2082863939486497e-02  -2.3687219561663888e-02  -2.5518580606729600e-02  -2.2765422035748106e-02  -2.2286647710974262e-02  -2.3853606367004652e-02  -2.1024610221329315e-02  -2.3142518925427791e-02  -2.0382490334792933e-02  -2.2739923537509723e-02  -2.4520753111992487e-02  -2.5900658866159363e-02  -2.4444028649199184e-02  -2.1360060304644764e-02  -1.8114136846916529e-02  -2.2981537111766114e-02  -2.3669169990374064e-02  -2.1575449721387915e-02  -2.6880104973178921e-02  -2.6889082680761595e-02  -2.6979763455971854e-02  -2.6997542757029810e-02  -2.3195205665474360e-02  -9.6790024626743770e-03  -7.9470231142196070e-03  -1.9811738718821640e-02  -2.3774641412849084e-02  -2.4167916616859127e-02  -2.2927800878490421e-02  -2.5792532717950484e-02  -2.2616856520582641e-02  -2.2080418567459698e-02  -1.8593591384154218e-02  -1.7575744443902759e-02  -2.2329040385927069e-02  -1.7281231311718142e-02  -8.7933586918493498e-03  -8.8630898109177559e-03  -1.2212980181097122e-02  -2.0227744728038448e-02  -2.2044386353417725e-02  -1.8964315979483597e-02  -2.0140916244155097e-02  -1.8972291130950152e-02  -2.3315066546482653e-02  -2.3144438007805235e-02  -9.2264625585589087e-03  -2.3391045007230143e-02  -1.9408310767146456e-02  -2.0338012442554773e-02  -1.6193265325153625e-02  -2.2051271572509624e-02  -1.6420265045249870e-02  -1.2182513590130390e-02  -2.3560033201694561e-02  -7.6225305428269299e-03  -1.5437893611664829e-02  -2.4973020180238593e-02  -1.6826240905576488e-02  -1.9282274268033150e-02  -1.9811057712751719e-02  -9.4956099551105951e-03  -2.3458266639381612e-02  -2.1071125257755587e-02  -1.9133017550844664e-02  -7.3698457460916172e-03  -2.0629344332471988e-02  -1.9249163171721932e-02  -7.9302314245236309e-03  -1.5992577839894769e-02  -1.8963824040281033e-02  -7.4257162468208057e-03  -1.6266577109393741e-02  -2.1199362832886984e-02  -2.1653473519121589e-02  -1.8292185158274230e-02  -1.5323456549444793e-02  -1.9378682507234599e-02  -2.3958081816954024e-02  -1.6684040654452167e-02  -2.8131458229932144e-02  -2.8221476402637408e-02  -2.8112651581962179e-02  -2.8291320564692780e-02  -2.1146538394411649e-02  -2.3357363161913971e-02  -2.1170458227067319e-02  -2.2571849804559407e-02  -1.9755573936308980e-02  -1.5225026024162296e-02  -2.2803992140853074e-02  -2.1789483677833336e-02  -1.8326269762414544e-02  -1.4308138333255874e-02  -1.5625364079952478e-02  -1.3945000133696501e-02  -2.1735641781996509e-02  -1.4269352628994409e-02  -1.9496230889653989e-02  -1.3844889079550133e-02  -7.5460423781997235e-03  -1.8953833103689359e-02  -1.6116097220260136e-02  -1.7807163978215874e-02  -1.9300810931204643e-02  -1.5373356769801278e-02  -1.4414529504224704e-02  -8.6825687717832518e-03  -2.4145454827715108e-02  -3.1728904094031625e-02  -3.2096731362373426e-02  -3.4000782992685163e-02  -3.6467010930034495e-02  -3.3977639749956677e-02  -3.7065264851984921e-02  -3.2045300931937297e-02  -3.3679395694699590e-02  -3.2001978102056496e-02  -3.3748907444533689e-02  -3.6589818772921633e-02  -3.6369596397712214e-02  -1.6955100084229447e-02  -1.5087931359676300e-02  -1.8229351120703580e-02  -1.5718884100356580e-02  -3.2433119740378893e-02  -3.5893571233499032e-02  -3.6039296669755791e-02  -3.2441759047378636e-02  -4.0831752378012981e-02  -4.6157090134145547e-02  -3.3010383760230071e-02  -3.2902897624261518e-02  -3.7703148128409122e-02  -4.7579029175867399e-02  -5.0012169482470357e-02  -4.9712954271087267e-02  -5.1488155586211372e-02  -5.1593190784180634e-02  -1.7365433434291328e-02  -1.6864514064055182e-02  -1.7374043609625398e-02  -1.6857817972037323e-02  -1.7447441174414585e-02  -1.6984122695763687e-02  -1.8038211744827917e-02  -5.1385035712687058e-02  -5.1664109410009547e-02  -4.9829501700698400e-02  -4.8172990206390098e-02  -1.9186825940485385e-02  -1.8504257387309524e-02  -1.7737736753159643e-02  -1.7302413076918544e-02  -1.8767159276091846e-02  -1.7643236168011275e-02  -2.0349064983664851e-02  -1.5910859602729133e-02  -4.8261476080241693e-02  -4.7196210853793864e-02  -1.7854213494863047e-02  -1.6032585570206606e-02  -1.7882215734621298e-02  -4.1107152268756171e-02  -4.5930133047022995e-02  -4.8272001617402673e-02  -5.0397682307657191e-02  -5.1279267161532652e-02  -5.1548726595413194e-02  -5.0897745110580032e-02  -5.1285271228835895e-02  -5.1255620189953000e-02  -4.9784317610318422e-02  -4.1017920093199566e-02  -4.6163985347191995e-02  -4.8293456628920782e-02  -5.0425999534522335e-02  -4.9205305039569269e-02  -5.1335838608460062e-02  -5.1627496432844616e-02  -5.1504612099831301e-02  -5.1381259125518747e-02  -5.0136569043207041e-02  -3.4267372921359666e-02  -4.0903429083578635e-02  -4.6228027370546966e-02  -4.7683655587480341e-02  -5.0197581985406629e-02  -4.9872931387782871e-02  -5.1670931022957382e-02  -5.1784591106838980e-02  -5.1642625048193010e-02  -5.1720683802452504e-02  -3.1780010181005895e-02  -3.2194061674727041e-02  -3.3673126277326375e-02  -3.3717169423461667e-02  -5.0914889048553937e-02  -4.9925605993620975e-02  -4.9844474714767682e-02  -4.9801077970684594e-02  -4.9664652804577186e-02  -4.9980240433385809e-02  -1.8101189641936855e-02  -4.9412713653526598e-02  -5.1234609269797365e-02  -4.9499927064563236e-02  -4.9128553845660769e-02  -5.0634492069702330e-02  -5.0448805665285729e-02  -3.4255477964527638e-02  -4.6049996515408233e-02  -4.6026248206435236e-02  -1.4836680280038180e-02  -1.3831650926705647e-02  -1.4847878138212103e-02  -4.5279695562021570e-02  -4.6108581885552842e-02  -4.4380907921617786e-02  -4.3697694449406112e-02  -4.7819873017450922e-02  -4.9449213993754397e-02  -4.7381262084037819e-02  -4.8918137307954170e-02  -4.5964741809277045e-02  -4.8812365905482033e-02  -4.5223886845449965e-02  -4.7607874993035051e-02  -4.4047938018279512e-02  -4.5679185736747285e-02  -4.5977189961134576e-02  -4.8656015452943638e-02  -4.5124211354854130e-02  -4.7231457966159275e-02  -4.3900509510067139e-02  -4.5697149678113495e-02  -4.2647935596274902e-02  -4.4407722302293631e-02  -4.1671535897972928e-02  -4.3523553074205600e-02  -4.0992866929937206e-02  -4.3120862823092514e-02  -4.0698562514618536e-02  -4.3268711853590588e-02  -4.2622572039994457e-02  -4.4283616002011514e-02  -4.1544174019270241e-02  -4.3353737668535029e-02  -4.0817824160835132e-02  -4.2929645708446026e-02  -4.0472955296262603e-02  -4.3083473334381756e-02  -4.5571569818974776e-02  -4.5412301657354881e-02  -4.9118498848982999e-02  -4.8934180882697950e-02  -4.5259956730845985e-02  -4.4833827300196069e-02  -4.1112236186480980e-02  -4.3980117579103140e-02  -4.1788433648037943e-02  -4.5037125272185140e-02  -4.2566845213042624e-02  -4.0861312827230885e-02  -4.3749901701562927e-02  -4.1447320539590056e-02  -4.4750500844648641e-02  -4.2166775586165162e-02  -5.0053495001997121e-02  -4.6753335107736119e-02  -4.5988342313612471e-02  -4.4262205568796779e-02  -4.5635518489297984e-02  -4.4408369047924348e-02  -4.5813623443037889e-02  -4.2483405482901714e-02  -3.9534997281989497e-02  -4.2729840247526206e-02  -3.9578708586831976e-02  -4.3198632987861703e-02  -3.5643338595639965e-02  -4.3339795383892564e-02  -4.4626538883734225e-02  -4.0932448998792045e-02  -3.9697522841095179e-02  -3.5455868923104157e-02  -4.4462481734986979e-02  -3.9989321234167902e-02  -4.5847579942925723e-02  -3.9081897448876600e-02  -4.5957202558858899e-02  -3.7944891413654078e-02  -3.8062147555387275e-02  -3.7202768220413504e-02  -4.3252263805891131e-02  -3.8513486157686648e-02  -4.2913300406685249e-02  -3.0717731730921537e-02  -4.9991128436189892e-02  -1.1708313491840107e-02  -4.5921162803611144e-02  -5.0024192043639101e-02  -3.7611237600702993e-02  -3.6995682659458393e-02  -4.1690732379916814e-02  -3.7593700997591933e-02  -4.5593016719172055e-02  -4.5555106146900767e-02  -4.4862295233211121e-02  -4.8316795576636568e-02  -4.6503045785247658e-02  -4.7419048670905219e-02  -4.5936496820158469e-02  -4.4086015920942571e-02  -4.3042382936907937e-02  -4.6031680246381504e-02  -4.4352142805503897e-02  -4.2000207101398235e-02  -4.2744293574121427e-02  -4.1038988852213250e-02  -4.1793283853113754e-02  -4.0627018704160002e-02  -4.1275221490329896e-02  -4.0612599270338272e-02  -4.1122457831749046e-02  -3.7812803834881691e-02  -4.2512185428174497e-02  -4.3385688373427808e-02  -4.2264635385583789e-02  -3.1059211383083003e-02  -4.1095310973173989e-02  -3.7697083997947002e-02  -3.8518686042331725e-02  -3.6472347020509770e-02  -1.0678862848022637e-02  -1.2453979851961101e-02  -1.1787530436921918e-02  -4.5089611504792411e-02  -3.8745835937519159e-02  -4.8893710673279932e-02  -4.3758784690944207e-02  -4.6885300482175381e-02  -3.2644432756290587e-02  -3.3317810291481849e-02  -3.4245687469003139e-02  -3.9913616572595054e-02  -4.3425855206833244e-02  -4.6432227078563627e-02  -4.4729905281859939e-02  -3.9981355384165931e-02  -4.2494777976283149e-02  -4.3104883653670809e-02  -4.2344380063172295e-02  -4.0496627011706095e-02  -4.1596950318638443e-02  -3.8122232308143697e-02  -4.0700071306542032e-02  -4.1105930426518222e-02  -4.1565386786165399e-02  -3.9704834311130630e-02  -4.2131507463616373e-02  -3.8565200422017561e-02  -4.2300676420100249e-02  -4.2786431983818402e-02  -4.4233248809554294e-02  -4.2234635580210705e-02  -4.5712652560305309e-02  -4.1553488849948826e-02  -4.6601580743611468e-02  -3.9921819070827119e-02  -4.5018886904128329e-02  -4.2245094989900686e-02  -4.4165917140510123e-02  -4.1362768818899769e-02  -4.8793510893924044e-02  -4.7323393611248592e-02  -3.7220075011115211e-02  -3.4499308407438346e-02  -4.2273428044504346e-02  -4.1400606922971782e-02  -4.7468942321372998e-02  -4.0215859907738433e-02  -4.7281989472495060e-02  -3.6343249109697405e-02  -3.8473563366483242e-02  -4.1601153569236146e-02  -4.7145694607442813e-02  -3.5418823999338017e-02  -4.2096819212166500e-02  -3.9505086696996622e-02  -3.6267509756509039e-02  -3.6491396612239081e-02  -3.8465032497770016e-02  -4.2406425188780517e-02  -3.7595762694686057e-02  -4.0833918953837159e-02  -3.98250094912