<?xml version="1.0"?>
<VTKFile type="UnstructuredGrid"  version="0.1"  >
<UnstructuredGrid>
<Piece  NumberOfPoints="1297" NumberOfCells="2496">
<Points>
<DataArray  type="Float64"  NumberOfComponents="3"  format="ascii">0 0 0  0 1 0  1 1 0  1 0 0  1.1 -0.1 0  -0.1 -0.1 0  1.1 1.1 0  -0.1 1.1 0  0.3088120167345768 0.6579853683766882 0  0.3094069334608466 0.3425148548824938 0  0.692369124774563 0.3415251765183815 0  0.6924295747786906 0.6588116352783091 0  0.50055384134318 0.5001837388156076 0  0 0.9499999999997918 0  0 0.8999999999995836 0  0 0.8499999999996529 0  0 0.7999999999999998 0  0 0.7500000000003466 0  0 0.7000000000006934 0  0 0.6500000000010401 0  0 0.6000000000013869 0  0 0.5500000000017335 0  0 0.5000000000020587 0  0 0.4500000000018723 0  0 0.4000000000016644 0  0 0.3500000000014564 0  0 0.3000000000012483 0  0 0.2500000000010403 0  0 0.2000000000008322 0  0 0.1500000000006241 0  0 0.100000000000416 0  0 0.05000000000020799 0  0.04999999999989965 0 0  0.09999999999981467 0 0  0.1499999999997036 0 0  0.1999999999995579 0 0  0.2499999999994121 0 0  0.2999999999992664 0 0  0.3499999999991206 0 0  0.3999999999989749 0 0  0.4499999999988292 0 0  0.4999999999986943 0 0  0.5499999999988151 0 0  0.5999999999989468 0 0  0.6499999999990784 0 0  0.69999999999921 0 0  0.7499999999993417 0 0  0.7999999999994734 0 0  0.8499999999996051 0 0  0.8999999999997368 0 0  0.9499999999998684 0 0  1 0.04999999999989965 0  1 0.09999999999981467 0  1 0.1499999999997036 0  1 0.1999999999995579 0  1 0.2499999999994121 0  1 0.2999999999992664 0  1 0.3499999999991206 0  1 0.3999999999989749 0  1 0.4499999999988292 0  1 0.4999999999986943 0  1 0.5499999999988151 0  1 0.5999999999989468 0  1 0.6499999999990784 0  1 0.69999999999921 0  1 0.7499999999993417 0  1 0.7999999999994734 0  1 0.8499999999996051 0  1 0.8999999999997368 0  1 0.9499999999998684 0  0.9499999999997918 1 0  0.8999999999995836 1 0  0.8499999999996529 1 0  0.7999999999999998 1 0  0.7500000000003466 1 0  0.7000000000006934 1 0  0.6500000000010401 1 0  0.6000000000013869 1 0  0.5500000000017335 1 0  0.5000000000020587 1 0  0.4500000000018723 1 0  0.4000000000016644 1 0  0.3500000000014564 1 0  0.3000000000012483 1 0  0.2500000000010403 1 0  0.2000000000008322 1 0  0.1500000000006241 1 0  0.100000000000416 1 0  0.05000000000020799 1 0  -0.1 1.05000000000004 0  -0.1 1.000000000000079 0  -0.1 0.9500000000001624 0  -0.1 0.9000000000003032 0  -0.1 0.850000000000444 0  -0.1 0.8000000000005848 0  -0.1 0.7500000000007256 0  -0.1 0.7000000000008665 0  -0.1 0.6500000000010508 0  -0.1 0.6000000000012352 0  -0.1 0.5500000000014196 0  -0.1 0.500000000001539 0  -0.1 0.4500000000014195 0  -0.1 0.4000000000013 0  -0.1 0.3500000000011588 0  -0.1 0.3000000000010178 0  -0.1 0.2500000000008986 0  -0.1 0.2000000000007579 0  -0.1 0.1500000000006174 0  -0.1 0.1000000000005272 0  -0.1 0.05000000000040083 0  -0.1 2.671196597248127e-13 0  -0.1 -0.0499999999998666 0  -0.0500000000000906 -0.1 0  -1.730560139634463e-13 -0.1 0  0.04999999999975802 -0.1 0  0.09999999999961506 -0.1 0  0.1499999999994613 -0.1 0  0.199999999999302 -0.1 0  0.2499999999991446 -0.1 0  0.2999999999990088 -0.1 0  0.3499999999988296 -0.1 0  0.3999999999986936 -0.1 0  0.4499999999985143 -0.1 0  0.4999999999984002 -0.1 0  0.5499999999985247 -0.1 0  0.5999999999986493 -0.1 0  0.6499999999987955 -0.1 0  0.6999999999989417 -0.1 0  0.7499999999990659 -0.1 0  0.7999999999992116 -0.1 0  0.8499999999993573 -0.1 0  0.8999999999994526 -0.1 0  0.949999999999584 -0.1 0  0.9999999999997226 -0.1 0  1.049999999999861 -0.1 0  1.1 -0.0500000000000906 0  1.1 -1.730560139634463e-13 0  1.1 0.04999999999975802 0  1.1 0.09999999999961506 0  1.1 0.1499999999994613 0  1.1 0.199999999999302 0  1.1 0.2499999999991446 0  1.1 0.2999999999990088 0  1.1 0.3499999999988296 0  1.1 0.3999999999986936 0  1.1 0.4499999999985143 0  1.1 0.4999999999984002 0  1.1 0.5499999999985247 0  1.1 0.5999999999986493 0  1.1 0.6499999999987955 0  1.1 0.6999999999989417 0  1.1 0.7499999999990659 0  1.1 0.7999999999992116 0  1.1 0.8499999999993573 0  1.1 0.8999999999994526 0  1.1 0.949999999999584 0  1.1 0.9999999999997226 0  1.1 1.049999999999861 0  1.05000000000004 1.1 0  1.000000000000079 1.1 0  0.9500000000001624 1.1 0  0.9000000000003032 1.1 0  0.850000000000444 1.1 0  0.8000000000005848 1.1 0  0.7500000000007256 1.1 0  0.7000000000008665 1.1 0  0.6500000000010508 1.1 0  0.6000000000012352 1.1 0  0.5500000000014196 1.1 0  0.500000000001539 1.1 0  0.4500000000014195 1.1 0  0.4000000000013 1.1 0  0.3500000000011588 1.1 0  0.3000000000010178 1.1 0  0.2500000000008986 1.1 0  0.2000000000007579 1.1 0  0.1500000000006174 1.1 0  0.1000000000005272 1.1 0  0.05000000000040083 1.1 0  2.671196597248127e-13 1.1 0  -0.0499999999998666 1.1 0  0.2992817543929058 0.6456663995167848 0  0.2886833749885703 0.6295536600205877 0  0.2787773995083943 0.6111951297467741 0  0.270112084492333 0.5909314451054878 0  0.2631311662593901 0.5693455259840923 0  0.2580287364355642 0.5467483659741967 0  0.2549355029327928 0.523506432534424 0  0.2539491667374763 0.5000326410704296 0  0.2550611197212213 0.4764758295518111 0  0.2582695246477624 0.4532362721761117 0  0.2634971305788638 0.4306980198734023 0  0.2705946939421731 0.4091956128386235 0  0.2793449761407616 0.3890504540203277 0  0.2893286645207718 0.3707398016813344 0  0.2999573589218512 0.3546878207610543 0  0.3196917327751585 0.3309925475953532 0  0.3332570879866602 0.3179412252355789 0  0.349236400226667 0.3049976107430543 0  0.3672024381161191 0.2929243652965989 0  0.3868465967689778 0.2821684278766276 0  0.4078699582988981 0.2730386512763881 0  0.4300008542298556 0.2657375989279316 0  0.4529302181031999 0.2603963744853034 0  0.4764340815898292 0.2571015243064059 0  0.5002019812235045 0.2559116234915869 0  0.5240073590540936 0.2568412201045804 0  0.5475826456168826 0.2598794766156124 0  0.5706317622589043 0.2649811439800328 0  0.5928867335935571 0.2720842559408448 0  0.6140680892064813 0.2810529779692294 0  0.6338960498528933 0.2917032294043053 0  0.6520535394438158 0.3037470929330515 0  0.6682318654812159 0.3167413139479572 0  0.6819238483540243 0.3298496795263467 0  0.7020043167132585 0.353942123611331 0  0.7125917614858396 0.3700103895231786 0  0.722603003042786 0.388515764688584 0  0.731342424263376 0.4089032100055772 0  0.7383725803992712 0.4305856194272457 0  0.7435031239911714 0.4532069936813173 0  0.7466305697164323 0.4764642681394736 0  0.7476910020315296 0.5000523071799668 0  0.7466557661828058 0.5236578798474149 0  0.7435432669430835 0.5470127321229368 0  0.7384319726219114 0.5696413919254826 0  0.7314018739833374 0.5913683138320444 0  0.7227021510971527 0.6117197741551796 0  0.7126947906540544 0.6302530725586045 0  0.7021010776248472 0.6463457511969934 0  0.6819685809224323 0.6705045822024713 0  0.6682283146057675 0.6836578552843611 0  0.652073874593327 0.6966453374799703 0  0.6339421386418033 0.7086861544369281 0  0.6141481689944379 0.7193385277365181 0  0.5929806273256999 0.7283240702077977 0  0.5707087661721353 0.7354676040363208 0  0.5476603305628791 0.7406070590617569 0  0.5240810663708538 0.7436813417514078 0  0.5002544187988487 0.7446494989646277 0  0.476460965095291 0.7435013510338685 0  0.4529581573287851 0.7402543625422849 0  0.4299802810350792 0.7349557483992242 0  0.4077800439648794 0.7276886543783193 0  0.3867055499473701 0.718601963764701 0  0.3669578364038708 0.7078404022122153 0  0.3488651869056139 0.6957176462444652 0  0.3327910026675893 0.6827151643099341 0  0.3191482608970254 0.6695861519718921 0  0.3786637408961024 0.3138025059660556 0  0.2850375808641828 0.4418896873886966 0  0.378508355398994 0.6868233621477217 0  0.2847564025983664 0.558223576683468 0  0.7135038733088119 0.5804663588215727 0  0.601948722748963 0.6969819258775025 0  0.6215559436163463 0.3120482035976561 0  0.7182424722196109 0.4410494554481287 0  0.722558115628805 0.5112893675614212 0  0.5573718353516265 0.2904145805375122 0  0.4436615018487786 0.2933576380749501 0  0.4423152357883795 0.7075027764732796 0  0.5351603103509812 0.712141061415637 0  0.2796960404291354 0.4882774354627876 0  0.2947719484026738 0.3982686598451044 0  0.4888815477880936 0.2906178729018422 0  0.2995055092955384 0.6005794538186153 0  0.7010949997968903 0.3958956965876765 0  0.4886905401700747 0.7137599373197595 0  0.6419473828494704 0.6785837491245952 0  0.3412110022908351 0.3351718498238569 0  0.6604343069419972 0.3356806014312748 0  0.3413083419442609 0.667775735166584 0  0.6970588524315169 0.62395950297104 0  0.3106466438782459 0.3598006364172313 0  0.311772320075446 0.6397674981896488 0  0.6763722608500994 0.6589698687264286 0  0.6915167911314899 0.3587377326065538 0  0.3592197323129676 0.6774877678591749 0  0.3692318286114674 0.6588730920164491 0  0.3894252273823118 0.665495603874406 0  0.3786463214298559 0.6383936075686109 0  0.4004235242474711 0.6433614991974892 0  0.3879569883789009 0.6143781548344284 0  0.4147020087677364 0.6183740889157281 0  0.3991367502866277 0.5845693974815087 0  0.3620060352938107 0.6092825674526152 0  0.432265750172142 0.5869428850462858 0  0.4127093789467334 0.5490687597760545 0  0.3736579803007931 0.553189518242069 0  0.3899703001430002 0.5144802556073415 0  0.3524502525283058 0.5162163773300087 0  0.365569904785732 0.4820164592505921 0  0.4048840006881836 0.4762944754281059 0  0.3844631223738227 0.4438475019818567 0  0.4197875755763066 0.4371129396143448 0  0.4003823782913628 0.4063519936250825 0  0.4323841170113738 0.3919216269591067 0  0.367513084763031 0.4102768390663318 0  0.4090173489194054 0.37153160501182 0  0.4410449427378806 0.6229726222632102 0  0.4663183441836594 0.5967257224085351 0  0.4843448687715087 0.6257049560293524 0  0.5026346389774945 0.5989996807318169 0  0.5200196413366411 0.6259442986549462 0  0.5380880976461988 0.5989282096278288 0  0.5550890560740569 0.6251587429244292 0  0.5728963937593531 0.5984220371264665 0  0.590106589577197 0.6259783598649513 0  0.6070505009006325 0.5902449329928774 0  0.591791941588384
[...]
<PointData  Scalars="state"> 
<DataArray  type="Float64"  Name="state"  format="ascii">0.0000000000000000e+00  0.0000000000000000e+00  0.0000000000000000e+00  0.0000000000000000e+00  0.0000000000000000e+00  0.0000000000000000e+00  0.0000000000000000e+00  0.0000000000000000e+00  -3.0749587223413467e-02  -3.0717821859441208e-02  -3.0884916775226107e-02  -3.0909140944620134e-02  -6.8910696112389064e-03  0.0000000000000000e+00  0.0000000000000000e+00  0.0000000000000000e+00  0.0000000000000000e+00  0.0000000000000000e+00  0.0000000000000000e+00  0.0000000000000000e+00  0.0000000000000000e+00  0.0000000000000000e+00  0.0000000000000000e+00  0.0000000000000000e+00  0.0000000000000000e+00  0.0000000000000000e+00  0.0000000000000000e+00  0.0000000000000000e+00  0.0000000000000000e+00  0.0000000000000000e+00  0.0000000000000000e+00  0.0000000000000000e+00  0.0000000000000000e+00  0.0000000000000000e+00  0.0000000000000000e+00  0.0000000000000000e+00  0.0000000000000000e+00  0.0000000000000000e+00  0.0000000000000000e+00  0.0000000000000000e+00  0.0000000000000000e+00  0.0000000000000000e+00  0.0000000000000000e+00  0.0000000000000000e+00  0.0000000000000000e+00  0.0000000000000000e+00  0.0000000000000000e+00  0.0000000000000000e+00  0.0000000000000000e+00  0.0000000000000000e+00  0.0000000000000000e+00  0.0000000000000000e+00  0.0000000000000000e+00  0.0000000000000000e+00  0.0000000000000000e+00  0.0000000000000000e+00  0.0000000000000000e+00  0.0000000000000000e+00  0.0000000000000000e+00  0.0000000000000000e+00  0.0000000000000000e+00  0.0000000000000000e+00  0.0000000000000000e+00  0.0000000000000000e+00  0.0000000000000000e+00  0.0000000000000000e+00  0.0000000000000000e+00  0.0000000000000000e+00  0.0000000000000000e+00  0.0000000000000000e+00  0.0000000000000000e+00  0.0000000000000000e+00  0.0000000000000000e+00  0.0000000000000000e+00  0.0000000000000000e+00  0.0000000000000000e+00  0.0000000000000000e+00  0.0000000000000000e+00  0.0000000000000000e+00  0.0000000000000000e+00  0.0000000000000000e+00  0.0000000000000000e+00  0.0000000000000000e+00  0.0000000000000000e+00  0.0000000000000000e+00  0.0000000000000000e+00  0.0000000000000000e+00  0.0000000000000000e+00  0.0000000000000000e+00  0.0000000000000000e+00  0.0000000000000000e+00  0.0000000000000000e+00  0.0000000000000000e+00  0.0000000000000000e+00  0.0000000000000000e+00  0.0000000000000000e+00  0.0000000000000000e+00  0.0000000000000000e+00  0.0000000000000000e+00  0.0000000000000000e+00  0.0000000000000000e+00  0.0000000000000000e+00  0.0000000000000000e+00  0.0000000000000000e+00  0.0000000000000000e+00  0.0000000000000000e+00  0.0000000000000000e+00  0.0000000000000000e+00  0.0000000000000000e+00  0.0000000000000000e+00  0.0000000000000000e+00  0.0000000000000000e+00  0.0000000000000000e+00  0.0000000000000000e+00  0.0000000000000000e+00  0.0000000000000000e+00  0.0000000000000000e+00  0.0000000000000000e+00  0.0000000000000000e+00  0.0000000000000000e+00  0.0000000000000000e+00  0.0000000000000000e+00  0.0000000000000000e+00  0.0000000000000000e+00  0.0000000000000000e+00  0.0000000000000000e+00  0.0000000000000000e+00  0.0000000000000000e+00  0.0000000000000000e+00  0.0000000000000000e+00  0.0000000000000000e+00  0.0000000000000000e+00  0.0000000000000000e+00  0.0000000000000000e+00  0.0000000000000000e+00  0.0000000000000000e+00  0.0000000000000000e+00  0.0000000000000000e+00  0.0000000000000000e+00  0.0000000000000000e+00  0.0000000000000000e+00  0.0000000000000000e+00  0.0000000000000000e+00  0.0000000000000000e+00  0.0000000000000000e+00  0.0000000000000000e+00  0.0000000000000000e+00  0.0000000000000000e+00  0.0000000000000000e+00  0.0000000000000000e+00  0.0000000000000000e+00  0.0000000000000000e+00  0.0000000000000000e+00  0.0000000000000000e+00  0.0000000000000000e+00  0.0000000000000000e+00  0.0000000000000000e+00  0.0000000000000000e+00  0.0000000000000000e+00  0.0000000000000000e+00  0.0000000000000000e+00  0.0000000000000000e+00  0.0000000000000000e+00  0.0000000000000000e+00  0.0000000000000000e+00  0.0000000000000000e+00  0.0000000000000000e+00  0.0000000000000000e+00  0.0000000000000000e+00  0.0000000000000000e+00  0.0000000000000000e+00  0.0000000000000000e+00  0.0000000000000000e+00  0.0000000000000000e+00  0.0000000000000000e+00  0.0000000000000000e+00  0.0000000000000000e+00  0.0000000000000000e+00  0.0000000000000000e+00  0.0000000000000000e+00  0.0000000000000000e+00  -2.9980597337147901e-02  -2.9602336557740753e-02  -2.9164714307027290e-02  -2.8711006882730105e-02  -2.8332068637695246e-02  -2.8039476005243060e-02  -2.7808448022599384e-02  -2.7849849814987261e-02  -2.7869029120082239e-02  -2.8091078552433334e-02  -2.8395573831631864e-02  -2.8739502556870671e-02  -2.9069170964769308e-02  -2.9468771418428949e-02  -2.9863099177600261e-02  -3.0246038519027393e-02  -2.9969068753356507e-02  -2.9730628231677537e-02  -2.9492519910557867e-02  -2.9259959356378172e-02  -2.8930591520752794e-02  -2.8604210311313358e-02  -2.8397408540698693e-02  -2.8201075074020473e-02  -2.8151242355269421e-02  -2.8209713948975101e-02  -2.8387163092257986e-02  -2.8655270864994187e-02  -2.8955575032176765e-02  -2.9354560401480354e-02  -2.9686171320291468e-02  -2.9912665582770427e-02  -3.0146998072746428e-02  -3.0404343484994632e-02  -3.0196473225386534e-02  -2.9701419747599409e-02  -2.9261564216385046e-02  -2.8785152957059291e-02  -2.8399588066698657e-02  -2.8096285722828164e-02  -2.7924925914638129e-02  -2.7839503496601983e-02  -2.7911594313620898e-02  -2.8161327413142034e-02  -2.8461139096187568e-02  -2.8806109107952352e-02  -2.9309559454876604e-02  -2.9761708933343716e-02  -3.0253724470658484e-02  -3.0392630702458772e-02  -3.0120754441437518e-02  -2.9928357894297059e-02  -2.9677644068387500e-02  -2.9336070078977761e-02  -2.8914158286208219e-02  -2.8615217369464114e-02  -2.8305212018487298e-02  -2.8107933835634476e-02  -2.8076234813098122e-02  -2.8161792057337251e-02  -2.8326423719352428e-02  -2.8497828189037806e-02  -2.8838228285054703e-02  -2.9190508757643348e-02  -2.9456962924683101e-02  -2.9739804927508603e-02  -2.9993287970056237e-02  -3.0259698749613539e-02  -2.4114983653398116e-02  -2.3310637680443905e-02  -2.4096377611560055e-02  -2.3307184910740429e-02  -2.4237650049477276e-02  -2.3732356684953132e-02  -2.4254450541068326e-02  -2.3572116251268014e-02  -2.2882512898716959e-02  -2.2891093416479970e-02  -2.2480590237137117e-02  -2.2477930100556834e-02  -2.2307504166433692e-02  -2.2797202410194270e-02  -2.4809536378145321e-02  -2.1568386866710899e-02  -2.3888357672160077e-02  -2.4164250420514691e-02  -2.2113053177698950e-02  -2.5005119132881618e-02  -2.5436135133255357e-02  -2.5333610341477141e-02  -2.5718771279773064e-02  -2.5606665606615838e-02  -2.6684253400900290e-02  -2.6193249816664928e-02  -2.6955944201856014e-02  -2.6885775649909776e-02  -2.4832669443533004e-02  -2.1635369582574632e-02  -2.0639505505754510e-02  -1.8882453934938238e-02  -1.7709808106102537e-02  -1.6147118707547606e-02  -1.4671930427725839e-02  -1.3253902579767671e-02  -1.7848383302391978e-02  -1.1419395410174071e-02  -1.0518914781401380e-02  -1.3586656505733074e-02  -1.1236101455491206e-02  -1.4591704442772361e-02  -1.3402208853545211e-02  -1.0333316483154931e-02  -1.2804015597472783e-02  -1.0718766588855745e-02  -1.3805015087698375e-02  -1.2984902925572157e-02  -1.6145232546362746e-02  -1.6059911193121439e-02  -1.3725836379201946e-02  -1.0841863301441240e-02  -1.2878422230829998e-02  -1.0635324476403129e-02  -1.2995917504135349e-02  -1.1147588151123130e-02  -1.3818811424336800e-02  -1.2429288942392447e-02  -1.5515207411267546e-02  -1.3921377423040808e-02  -1.1037413934759094e-02  -1.3572234268620044e-02  -1.1152989018501853e-02  -1.6420263094723376e-02  -1.6761744682090358e-02  -1.7382865865796321e-02  -1.6737337702041194e-02  -1.6665433309962618e-02  -1.7952569415936648e-02  -1.5415078659816294e-02  -1.2579024387614504e-02  -1.9797092321803669e-02  -1.8150103653270615e-02  -1.6269828616715880e-02  -1.7017826512836592e-02  -1.5754354934956392e-02  -1.2144096867946040e-02  -1.6074578787840615e-02  -1.3045402261482425e-02  -9.7197751597756319e-03  -1.1655998317242551e-02  -1.4493673845209446e-02  -1.4007079348992016e-02  -1.0456559937744116e-02  -1.3602302563359174e-02  -1.6343684130203182e-02  -1.6453583685688486e-02  -1.4687993390566933e-02  -1.8739413714033811e-02  -1.9326951245695136e-02  -2.1156447028982363e-02  -2.1201313176842498e-02  -9.0239109359241537e-03  -1.9438417769684271e-02  -1.9238543897765976e-02  -1.9951308500541217e-02  -1.8149047015860838e-02  -2.1517004573859702e-02  -2.1793885723171782e-02  -2.0274315160291528e-02  -1.6394010682251971e-02  -1.9069290904209758e-02  -2.0855913777049359e-02  -1.8156680340870635e-02  -1.6114201320626010e-02  -1.8485768435439694e-02  -1.9055550762320309e-02  -1.6480847587333057e-02  -1.8784589097069485e-02  -2.0847960249355462e-02  -2.1326376645828874e-02  -2.0104687115220374e-02  -2.0124819067776554e-02  -1.8995473702567281e-02  -2.1365835304458715e-02  -1.6782698497026051e-02  -8.4185935650937186e-03  -2.1087896294329781e-02  -8.4757295741233023e-03  -1.4353151850825719e-02  -1.7594130826337737e-02  -1.4900086519318805e-02  -1.7736317220511059e-02  -2.0041635768709279e-02  -2.0574867649591780e-02  -1.8823847146126924e-02  -1.6885133162360406e-02  -1.8568246839297621e-02  -1.9313738372227617e-02  -1.0103326220280463e-02  -2.3002147797221231e-02  -2.3395441657517068e-02  -1.7249355025113398e-02  -1.9679036754447394e-02  -1.9164004857392364e-02  -1.7498015761550693e-02  -1.8467884606298030e-02  -2.0870797904797921e-02  -1.9147368039562251e-02  -2.0784712146414547e-02  -2.1270429711609105e-02  -2.2565114046439471e-02  -2.4095248624018271e-02  -2.4705272030731848e-02  -1.9999583564190373e-02  -2.2131673738683320e-02  -2.2331271577736879e-02  -2.2488024406612295e-02  -2.4411777147275028e-02  -2.5483115129254431e-02  -2.2877333306867659e-02  -1.9274416656037428e-02  -1.6858075139993319e-02  -2.4142268889913519e-02  -2.3436139108167678e-02  -2.2380134571856666e-02  -2.5057431395599846e-02  -2.2131241087698855e-02  -2.2109325837455705e-02  -2.3678568015356637e-02  -2.5467207816948521e-02  -2.2731156085122332e-02  -2.2318545482747601e-02  -2.3851869746035780e-02  -2.1027804585357898e-02  -2.3148250112728773e-02  -2.0373377875359221e-02  -2.2759034932131623e-02  -2.4490023845264785e-02  -2.5832089913999531e-02  -2.4387578190428930e-02  -2.1346785707984674e-02  -1.8125571743713251e-02  -2.2936040757758205e-02  -2.3659330906512437e-02  -2.1545431528329415e-02  -2.6800463132007839e-02  -2.6808574484925140e-02  -2.6903638394776400e-02  -2.6915235394862638e-02  -2.3214863032797354e-02  -9.6761265980772060e-03  -7.9435915227488198e-03  -1.9838090843769293e-02  -2.3777297836571194e-02  -2.4168834046178599e-02  -2.2895833304775553e-02  -2.5736640131091695e-02  -2.2646862118699873e-02  -2.2046209082969934e-02  -1.8605120974702100e-02  -1.7574421523436620e-02  -2.2362599663355180e-02  -1.7302207365776416e-02  -8.7950602601291894e-03  -8.8613502020364523e-03  -1.2216093407764741e-02  -2.0199545326741054e-02  -2.2011447418510053e-02  -1.8977406320476394e-02  -2.0133031456656826e-02  -1.8980040354760089e-02  -2.3366355306171125e-02  -2.3190527587514879e-02  -9.2237563603783674e-03  -2.3350419809318668e-02  -1.9417155981215555e-02  -2.0328339238641926e-02  -1.6185198542427209e-02  -2.2039790044803696e-02  -1.6418443900260659e-02  -1.2188685195091043e-02  -2.3599052059248320e-02  -7.6203896062829162e-03  -1.5432444322250140e-02  -2.4912483830950446e-02  -1.6824798411401363e-02  -1.9292108694256044e-02  -1.9812585606706991e-02  -9.4914125304030907e-03  -2.3496196176166155e-02  -2.1051554988777272e-02  -1.9148529275242170e-02  -7.3687886582930436e-03  -2.0641743719467476e-02  -1.9228309155907775e-02  -7.9269259041655788e-03  -1.6001016311021361e-02  -1.8977789786262786e-02  -7.4248952309077928e-03  -1.6269597784185349e-02  -2.1206654894325678e-02  -2.1631877653173055e-02  -1.8276482792161000e-02  -1.5323713017526447e-02  -1.9383452871553512e-02  -2.3999900109512300e-02  -1.6681527211358672e-02  -2.8040692434144469e-02  -2.8128431704942974e-02  -2.8020277090432689e-02  -2.8198306503404144e-02  -2.1125921436096134e-02  -2.3310414916825291e-02  -2.1188558917618217e-02  -2.2556884395424606e-02  -1.9760411637794881e-02  -1.5217328677391178e-02  -2.2761748763376333e-02  -2.1763255200491188e-02  -1.8308394935674016e-02  -1.4303631520903453e-02  -1.5625373103897770e-02  -1.3941748977529296e-02  -2.1737807880170237e-02  -1.4265385953546792e-02  -1.9491485526891898e-02  -1.3851431021784117e-02  -7.5434082537327975e-03  -1.8959904519934189e-02  -1.6109940040917821e-02  -1.7798381669624309e-02  -1.9317602265856052e-02  -1.5388466310153238e-02  -1.4410260096554543e-02  -8.6831426918755859e-03  -2.4094810751126475e-02  -3.1721784838081482e-02  -3.2084895338606804e-02  -3.3970663899033422e-02  -3.6425776200381316e-02  -3.3946436262811304e-02  -3.7021381025412109e-02  -3.2036707813718777e-02  -3.3653642022140551e-02  -3.1994158482750279e-02  -3.3720991500337971e-02  -3.6546482525563549e-02  -3.6329081311595089e-02  -1.6950189502138831e-02  -1.5083036177686436e-02  -1.8224832039153815e-02  -1.5713838932808526e-02  -3.2506774735832390e-02  -3.5918675659077554e-02  -3.6061916100157299e-02  -3.2515029442263844e-02  -4.0854422419361235e-02  -4.6214544738925147e-02  -3.3072164573736400e-02  -3.2968597469766624e-02  -3.7725737626056084e-02  -4.7658252182275623e-02  -5.0082402977217569e-02  -4.9763955030511092e-02  -5.1544356222810998e-02  -5.1630082932455336e-02  -1.7287847098802666e-02  -1.6790745382107605e-02  -1.7298324019993760e-02  -1.6783171618765372e-02  -1.7475263187772875e-02  -1.7010411174021835e-02  -1.8065369026316357e-02  -5.1424856729030084e-02  -5.1679897967478655e-02  -4.9913967292359841e-02  -4.8267752119468800e-02  -1.9241555638018285e-02  -1.8549383165313953e-02  -1.7779466473487042e-02  -1.7350583302479926e-02  -1.8820973048173827e-02  -1.7692682644647840e-02  -2.0403209290974614e-02  -1.5872952025040701e-02  -4.8353317793704213e-02  -4.7298835895523972e-02  -1.7813027636713181e-02  -1.5995293622885157e-02  -1.7841182548411723e-02  -4.1103089564457393e-02  -4.5980494497874135e-02  -4.8306365481616549e-02  -5.0450506719122414e-02  -5.1310702085859666e-02  -5.1595442071033788e-02  -5.0963817910873378e-02  -5.1309645013696357e-02  -5.1261556601426284e-02  -4.9823292083627992e-02  -4.1010731872373543e-02  -4.6214560324272923e-02  -4.8327075572583769e-02  -5.0479884143080418e-02  -4.9276981030743974e-02  -5.1367332552918379e-02  -5.1676379870122094e-02  -5.1530037659578219e-02  -5.1386456920814491e-02  -5.0176337672767288e-02  -3.4301514227574929e-02  -4.0928053968049584e-02  -4.6287239886048978e-02  -4.7764865169267867e-02  -5.0270036182409605e-02  -4.9926066437234504e-02  -5.1728853179870318e-02  -5.1822848382740726e-02  -5.1684263043567137e-02  -5.1739818643478638e-02  -3.1856188199700569e-02  -3.2274050662282130e-02  -3.3724814861418137e-02  -3.3766517156090581e-02  -5.0988104312548507e-02  -4.9926874986392422e-02  -4.9821019038888026e-02  -4.9826005815436197e-02  -4.9665374588397607e-02  -4.9955600871155574e-02  -1.8121694854744342e-02  -4.9413265599306422e-02  -5.1225033077643166e-02  -4.9522339252871160e-02  -4.9126537735168112e-02  -5.0618434235997219e-02  -5.0506064508643513e-02  -3.4288452941305801e-02  -4.6029848730966320e-02  -4.6005876547636104e-02  -1.4847973100384064e-02  -1.3842197001327824e-02  -1.4858647707261918e-02  -4.5285597726956235e-02  -4.6111205577561834e-02  -4.4473642943194953e-02  -4.3800948494825021e-02  -4.7792701789257964e-02  -4.9403381365373818e-02  -4.7351253991825215e-02  -4.8868017485592420e-02  -4.5916613562261198e-02  -4.8756720226217444e-02  -4.5142338765042561e-02  -4.7514390262840163e-02  -4.3930331090535381e-02  -4.5542368741073591e-02  -4.5928358504733244e-02  -4.8595660041711827e-02  -4.5042099293237957e-02  -4.7132527980635962e-02  -4.3782397005782070e-02  -4.5559466388853088e-02  -4.2496480002309961e-02  -4.4235810932486706e-02  -4.1492819699932841e-02  -4.3326519704774982e-02  -4.0797336226219387e-02  -4.2912446541309136e-02  -4.0500233478549072e-02  -4.3064853372035937e-02  -4.2470772220974250e-02  -4.4111211701966843e-02  -4.1364486254415522e-02  -4.3155698955934345e-02  -4.0620743751985051e-02  -4.2719426321260363e-02  -4.0272539262569226e-02  -4.2876748946232252e-02  -4.5580311624083651e-02  -4.5439859061679293e-02  -4.9148671162749097e-02  -4.8959456770909925e-02  -4.5266882238190774e-02  -4.4859522959994270e-02  -4.0924042253923577e-02  -4.3795291485734439e-02  -4.1623169348544882e-02  -4.4882116690643299e-02  -4.2432571011754593e-02  -4.0670357971765859e-02  -4.3561510641504049e-02  -4.1278634060602039e-02  -4.4591020846351227e-02  -4.2026882999429541e-02  -5.0115055728397744e-02  -4.6800805902983432e-02  -4.6054794514999206e-02  -4.4096755400916218e-02  -4.5501203008573174e-02  -4.4246866670385646e-02  -4.5682646060083570e-02  -4.2283604958436111e-02  -3.9496976452911642e-02  -4.2531458634309648e-02  -3.9541251046161387e-02  -4.3023386499792468e-02  -3.5468139238604132e-02  -4.3164810567996273e-02  -4.4565046417259203e-02  -4.0897135701689624e-02  -3.9710050256171227e-02  -3.5279022668170006e-02  -4.4402600340882614e-02  -3.9952664701723109e-02  -4.5738193359094285e-02  -3.9092846960607400e-02  -4.5847697269254237e-02  -3.8031859772351968e-02  -3.8137088861108552e-02  -3.7296307071542294e-02  -4.3361322386537088e-02  -3.8538670642837385e-02  -4.2955539517107080e-02  -3.0729640257172820e-02  -4.9959636783617763e-02  -1.1709987323143807e-02  -4.6019437886046635e-02  -4.9994724765685408e-02  -3.7489085672219431e-02  -3.7092831301393472e-02  -4.1798773992893931e-02  -3.7472018813845084e-02  -4.5599120986778381e-02  -4.5559076801019109e-02  -4.4941215497410501e-02  -4.8413352734371494e-02  -4.6604966507685142e-02  -4.7522743664329105e-02  -4.6046224562496477e-02  -4.4188637780177460e-02  -4.3150462227229180e-02  -4.6126019874298534e-02  -4.4463373710173879e-02  -4.2109480895670306e-02  -4.2853304066110896e-02  -4.1146655391264775e-02  -4.1898989148509307e-02  -4.0732876717855318e-02  -4.1378210558647571e-02  -4.0661693749552648e-02  -4.1155617927540182e-02  -3.7837241593245516e-02  -4.2552336628963558e-02  -4.3494297064285606e-02  -4.2370784576261859e-02  -3.1070245687543754e-02  -4.1201104767420796e-02  -3.7692397871806581e-02  -3.8515645533135114e-02  -3.6570496475355457e-02  -1.0680502322160184e-02  -1.2456240553739258e-02  -1.1789473639200387e-02  -4.5152899479192973e-02  -3.8749470088030591e-02  -4.8977397336898369e-02  -4.3839788584174970e-02  -4.6985303832935095e-02  -3.2677190524793412e-02  -3.3338523982875221e-02  -3.4279465456215484e-02  -4.0002255235214008e-02  -4.3531566286690145e-02  -4.6541491451393226e-02  -4.4844303811502666e-02  -4.0086496713531962e-02  -4.2607542563545056e-02  -4.3215590025662436e-02  -4.2454748515091047e-02  -4.0606026569479557e-02  -4.1706472077896461e-02  -3.8225829651766276e-02  -4.0807953345986185e-02  -4.1210639501459104e-02  -4.1672800220404149e-02  -3.9811511627460043e-02  -4.2242346846771306e-02  -3.8669672186897333e-02  -4.2412436778947148e-02  -4.2896374988840254e-02  -4.4346632389908887e-02  -4.2342817383567981e-02  -4.5823967823019507e-02  -4.1652702804330338e-02  -4.6701339037669883e-02  -4.0006133342792377e-02  -4.5099976185315714e-02  -4.2126412353123525e-02  -4.4070416217717671e-02  -4.1219808985102586e-02  -4.8721971699735758e-02  -4.7272057699124681e-02  -3.7317333720898141e-02  -3.4567754361735745e-02  -4.2158484666001007e-02  -4.1261846159949260e-02  -4.7449396269145926e-02  -4.0312456615396022e-02  -4.7182169885073073e-02  -3.6440330033863301e-02  -3.8379385964449196e-02  -4.1700332990703415e-02  -4.7250012465714225e-02  -3.5484039216748871e-02  -4.2158614540848530e-02  -3.9600203251400172e-02  -3.6133077570233048e-02  -3.6385157925179004e-02  -3.8374698904338762e-02  -4.2503352867224335e-02  -3.7646094141815155e-02  -4.0929751396352895e-02  -3.99193933267