<?xml version="1.0"?>
<VTKFile type="UnstructuredGrid"  version="0.1"  >
<UnstructuredGrid>
<Piece  NumberOfPoints="1297" NumberOfCells="2496">
<Points>
<DataArray  type="Float64"  NumberOfComponents="3"  format="ascii">0 0 0  0 1 0  1 1 0  1 0 0  1.1 -0.1 0  -0.1 -0.1 0  1.1 1.1 0  -0.1 1.1 0  0.271160572280093 0.6816699893486124 0  0.2718469580391911 0.3186363915604606 0  0.7289133669130934 0.3181017104819555 0  0.7288975089019279 0.6820198551613014 0  0.5001745432080847 0.500108225894796 0  0 0.9499999999997918 0  0 0.8999999999995836 0  0 0.8499999999996529 0  0 0.7999999999999998 0  0 0.7500000000003466 0  0 0.7000000000006934 0  0 0.6500000000010401 0  0 0.6000000000013869 0  0 0.5500000000017335 0  0 0.5000000000020587 0  0 0.4500000000018723 0  0 0.4000000000016644 0  0 0.3500000000014564 0  0 0.3000000000012483 0  0 0.2500000000010403 0  0 0.2000000000008322 0  0 0.1500000000006241 0  0 0.100000000000416 0  0 0.05000000000020799 0  0.04999999999989965 0 0  0.09999999999981467 0 0  0.1499999999997036 0 0  0.1999999999995579 0 0  0.2499999999994121 0 0  0.2999999999992664 0 0  0.3499999999991206 0 0  0.3999999999989749 0 0  0.4499999999988292 0 0  0.4999999999986943 0 0  0.5499999999988151 0 0  0.5999999999989468 0 0  0.6499999999990784 0 0  0.69999999999921 0 0  0.7499999999993417 0 0  0.7999999999994734 0 0  0.8499999999996051 0 0  0.8999999999997368 0 0  0.9499999999998684 0 0  1 0.04999999999989965 0  1 0.09999999999981467 0  1 0.1499999999997036 0  1 0.1999999999995579 0  1 0.2499999999994121 0  1 0.2999999999992664 0  1 0.3499999999991206 0  1 0.3999999999989749 0  1 0.4499999999988292 0  1 0.4999999999986943 0  1 0.5499999999988151 0  1 0.5999999999989468 0  1 0.6499999999990784 0  1 0.69999999999921 0  1 0.7499999999993417 0  1 0.7999999999994734 0  1 0.8499999999996051 0  1 0.8999999999997368 0  1 0.9499999999998684 0  0.9499999999997918 1 0  0.8999999999995836 1 0  0.8499999999996529 1 0  0.7999999999999998 1 0  0.7500000000003466 1 0  0.7000000000006934 1 0  0.6500000000010401 1 0  0.6000000000013869 1 0  0.5500000000017335 1 0  0.5000000000020587 1 0  0.4500000000018723 1 0  0.4000000000016644 1 0  0.3500000000014564 1 0  0.3000000000012483 1 0  0.2500000000010403 1 0  0.2000000000008322 1 0  0.1500000000006241 1 0  0.100000000000416 1 0  0.05000000000020799 1 0  -0.1 1.05000000000004 0  -0.1 1.000000000000079 0  -0.1 0.9500000000001624 0  -0.1 0.9000000000003032 0  -0.1 0.850000000000444 0  -0.1 0.8000000000005848 0  -0.1 0.7500000000007256 0  -0.1 0.7000000000008665 0  -0.1 0.6500000000010508 0  -0.1 0.6000000000012352 0  -0.1 0.5500000000014196 0  -0.1 0.500000000001539 0  -0.1 0.4500000000014195 0  -0.1 0.4000000000013 0  -0.1 0.3500000000011588 0  -0.1 0.3000000000010178 0  -0.1 0.2500000000008986 0  -0.1 0.2000000000007579 0  -0.1 0.1500000000006174 0  -0.1 0.1000000000005272 0  -0.1 0.05000000000040083 0  -0.1 2.671196597248127e-13 0  -0.1 -0.0499999999998666 0  -0.0500000000000906 -0.1 0  -1.730560139634463e-13 -0.1 0  0.04999999999975802 -0.1 0  0.09999999999961506 -0.1 0  0.1499999999994613 -0.1 0  0.199999999999302 -0.1 0  0.2499999999991446 -0.1 0  0.2999999999990088 -0.1 0  0.3499999999988296 -0.1 0  0.3999999999986936 -0.1 0  0.4499999999985143 -0.1 0  0.4999999999984002 -0.1 0  0.5499999999985247 -0.1 0  0.5999999999986493 -0.1 0  0.6499999999987955 -0.1 0  0.6999999999989417 -0.1 0  0.7499999999990659 -0.1 0  0.7999999999992116 -0.1 0  0.8499999999993573 -0.1 0  0.8999999999994526 -0.1 0  0.949999999999584 -0.1 0  0.9999999999997226 -0.1 0  1.049999999999861 -0.1 0  1.1 -0.0500000000000906 0  1.1 -1.730560139634463e-13 0  1.1 0.04999999999975802 0  1.1 0.09999999999961506 0  1.1 0.1499999999994613 0  1.1 0.199999999999302 0  1.1 0.2499999999991446 0  1.1 0.2999999999990088 0  1.1 0.3499999999988296 0  1.1 0.3999999999986936 0  1.1 0.4499999999985143 0  1.1 0.4999999999984002 0  1.1 0.5499999999985247 0  1.1 0.5999999999986493 0  1.1 0.6499999999987955 0  1.1 0.6999999999989417 0  1.1 0.7499999999990659 0  1.1 0.7999999999992116 0  1.1 0.8499999999993573 0  1.1 0.8999999999994526 0  1.1 0.949999999999584 0  1.1 0.9999999999997226 0  1.1 1.049999999999861 0  1.05000000000004 1.1 0  1.000000000000079 1.1 0  0.9500000000001624 1.1 0  0.9000000000003032 1.1 0  0.850000000000444 1.1 0  0.8000000000005848 1.1 0  0.7500000000007256 1.1 0  0.7000000000008665 1.1 0  0.6500000000010508 1.1 0  0.6000000000012352 1.1 0  0.5500000000014196 1.1 0  0.500000000001539 1.1 0  0.4500000000014195 1.1 0  0.4000000000013 1.1 0  0.3500000000011588 1.1 0  0.3000000000010178 1.1 0  0.2500000000008986 1.1 0  0.2000000000007579 1.1 0  0.1500000000006174 1.1 0  0.1000000000005272 1.1 0  0.05000000000040083 1.1 0  2.671196597248127e-13 1.1 0  -0.0499999999998666 1.1 0  0.2643517438444949 0.6646024060458524 0  0.2602104175137395 0.6431244072388884 0  0.2575665036199762 0.6202690197645526 0  0.2559057470314596 0.5966995797458609 0  0.2547698781365196 0.5727742372476871 0  0.2540307493435794 0.5486330275211345 0  0.2536279719128881 0.5243701472569191 0  0.2535324363808341 0.5000641940201918 0  0.25373469252584 0.4757500107780713 0  0.2542479932973062 0.4514856020979629 0  0.2551167031406325 0.4273536338500532 0  0.2564039964855013 0.4034395478237531 0  0.2582518015251138 0.3798925199215711 0  0.2609607079650146 0.357034523465391 0  0.2651317685604136 0.3356133710351553 0  0.2887192592859644 0.3114382435729551 0  0.3097784948246536 0.3065506865693373 0  0.3323734261330246 0.3030785340275778 0  0.3556643654885963 0.3004185735167689 0  0.3793554669402943 0.2983201805329809 0  0.4032934948020748 0.2966616178207305 0  0.4273829415443108 0.2953895326951089 0  0.4515862879707613 0.2944721473654601 0  0.4758522598237271 0.2939037555041581 0  0.5001512769787858 0.2936827971385633 0  0.5244533858579621 0.293810839179745 0  0.5487261000352474 0.2942887047624207 0  0.5729463855455096 0.2951275195428344 0  0.5970550957617494 0.296328577378125 0  0.6210133517348275 0.2979261784790455 0  0.6447416103760423 0.2999707912179661 0  0.6680857383526098 0.3025961373371033 0  0.6907555747422204 0.3060393763810815 0  0.7118799432603008 0.3109208435522536 0  0.7355831901264641 0.3353457400514639 0  0.7397980512583123 0.3567565799167202 0  0.7425183614091828 0.3796797337201635 0  0.7443567637561332 0.4032943201255862 0  0.7456223976789829 0.427258645275282 0  0.7464593752551296 0.4514293037644778 0  0.7469406859116661 0.4757187894617986 0  0.7471018020766516 0.5000651372185042 0  0.7469526110391232 0.524415119126066 0  0.7464811488223906 0.5487139295159068 0  0.7456569190652854 0.5728899480712299 0  0.7443913476219081 0.5968568050706663 0  0.7425521784813608 0.6204566174648101 0  0.7398319373573408 0.6433796057985385 0  0.7356066233604315 0.6647863612649686 0  0.7118894214762177 0.6892439239502057 0  0.6907599573568292 0.6941569511984186 0  0.668096828845142 0.6976338076695076 0  0.6447461380337424 0.7002683427270853 0  0.6210103884146999 0.7023299956611977 0  0.5970390523372808 0.7039403766025293 0  0.5729100643223541 0.7051520716558327 0  0.5486749396882209 0.7059939445288013 0  0.5243851582931024 0.7064777944339657 0  0.5000669058827582 0.7066092130865018 0  0.4757500933307068 0.7063911325919353 0  0.4514663025440732 0.7058241334304124 0  0.4272431886268734 0.7049111043614584 0  0.403124330565668 0.7036322630424687 0  0.3791533669994298 0.7019724459497001 0  0.3554104859255349 0.6998745613044792 0  0.3320446118489326 0.6972186628668416 0  0.3093617675221909 0.6937424101953971 0  0.2881757989870897 0.6888712364674399 0  0.3675905402113369 0.3216727472991621 0  0.2765347011700544 0.4392932950188614 0  0.3673680577887464 0.6785889788894792 0  0.2762881176072481 0.56084819305615 0  0.7247627631494906 0.5845662248903623 0  0.6089491239208291 0.681606758627992 0  0.6318027065483408 0.3208567969253792 0  0.7256343036344969 0.4384540249528801 0  0.7255946177000255 0.511644423576941 0  0.560099852340763 0.3158155913055387 0  0.4405121924099077 0.3178955745642011 0  0.4389758397047998 0.6827733153235752 0  0.5364995910884868 0.6840744192944589 0  0.2755872175753212 0.4878869460591628 0  0.2771034202286134 0.3912737411203097 0  0.488218835417865 0.3188553673803248 0  0.2823790009885334 0.6070099700672793 0  0.7179682309848304 0.3891533601430375 0  0.487939634845097 0.6842840390299472 0  0.6565447962105198 0.6772330004202489 0  0.3204404819597966 0.3282396299651544 0  0.6803695385703009 0.3291924227628593 0  0.3207453025969875 0.6741607708508872 0  0.7192443792984413 0.633864752418961 0  0.2825806428213979 0.3455664468165464 0  0.2843954884341133 0.6532403399260083 0  0.7019204520545055 0.671759546460757 0  0.7187991013822757 0.3446813054191544 0  0.3437898521478104 0.6765526754553725 0  0.3558285675061162 0.6560149006897527 0  0.3793296453438567 0.6572804433142746 0  0.367133285014374 0.6346648015832383 0  0.3916689173654265 0.6354995706671707 0  0.3784092421474707 0.6103808766543487 0  0.4076857030381042 0.6110531237322923 0  0.3915181839594309 0.5810152944807746 0  0.349795210387597 0.6089848360279908 0  0.4270821948667285 0.5810077331985894 0  0.4067753832306386 0.5466055586278549 0  0.365562891511541 0.5522542844207715 0  0.3834206103997116 0.5139804945522213 0  0.3449094492568829 0.5161751970373946 0  0.3582604923681355 0.4821734651120685 0  0.3989049648169315 0.4772300786293483 0  0.3768382391683693 0.4452722326877562 0  0.4141113668264453 0.4405070465575422 0  0.3926650670319469 0.4103735599821975 0  0.4270583369703767 0.3996154898935148 0  0.3572343440573529 0.4110845048300263 0  0.4014152337641486 0.3789962259242114 0  0.4362751372706674 0.6128734804237485 0  0.4635460191330722 0.5883556373387566 0  0.4828494459152599 0.6132603863378182 0  0.5024153488863812 0.5898277889578756 0  0.5210470436560191 0.6134816503323619 0  0.5403547515081615 0.5903685771704752 0  0.5587223294318506 0.6143718245259806 0  0.5777091953117314 0.5916243797641081 0  0.596767039252411 0.6182254328226365 0  0.6143351412824261 0.5866195653742441 0  0.597199539
[...]
<PointData  Scalars="state"> 
<DataArray  type="Float64"  Name="state"  format="ascii">0.0000000000000000e+00  0.0000000000000000e+00  0.0000000000000000e+00  0.0000000000000000e+00  0.0000000000000000e+00  0.0000000000000000e+00  0.0000000000000000e+00  0.0000000000000000e+00  -3.5832524743850812e-02  -3.5798919171007672e-02  -3.6173435870859597e-02  -3.6165134278807090e-02  -6.9668383791535501e-03  0.0000000000000000e+00  0.0000000000000000e+00  0.0000000000000000e+00  0.0000000000000000e+00  0.0000000000000000e+00  0.0000000000000000e+00  0.0000000000000000e+00  0.0000000000000000e+00  0.0000000000000000e+00  0.0000000000000000e+00  0.0000000000000000e+00  0.0000000000000000e+00  0.0000000000000000e+00  0.0000000000000000e+00  0.0000000000000000e+00  0.0000000000000000e+00  0.0000000000000000e+00  0.0000000000000000e+00  0.0000000000000000e+00  0.0000000000000000e+00  0.0000000000000000e+00  0.0000000000000000e+00  0.0000000000000000e+00  0.0000000000000000e+00  0.0000000000000000e+00  0.0000000000000000e+00  0.0000000000000000e+00  0.0000000000000000e+00  0.0000000000000000e+00  0.0000000000000000e+00  0.0000000000000000e+00  0.0000000000000000e+00  0.0000000000000000e+00  0.0000000000000000e+00  0.0000000000000000e+00  0.0000000000000000e+00  0.0000000000000000e+00  0.0000000000000000e+00  0.0000000000000000e+00  0.0000000000000000e+00  0.0000000000000000e+00  0.0000000000000000e+00  0.0000000000000000e+00  0.0000000000000000e+00  0.0000000000000000e+00  0.0000000000000000e+00  0.0000000000000000e+00  0.0000000000000000e+00  0.0000000000000000e+00  0.0000000000000000e+00  0.0000000000000000e+00  0.0000000000000000e+00  0.0000000000000000e+00  0.0000000000000000e+00  0.0000000000000000e+00  0.0000000000000000e+00  0.0000000000000000e+00  0.0000000000000000e+00  0.0000000000000000e+00  0.0000000000000000e+00  0.0000000000000000e+00  0.0000000000000000e+00  0.0000000000000000e+00  0.0000000000000000e+00  0.0000000000000000e+00  0.0000000000000000e+00  0.0000000000000000e+00  0.0000000000000000e+00  0.0000000000000000e+00  0.0000000000000000e+00  0.0000000000000000e+00  0.0000000000000000e+00  0.0000000000000000e+00  0.0000000000000000e+00  0.0000000000000000e+00  0.0000000000000000e+00  0.0000000000000000e+00  0.0000000000000000e+00  0.0000000000000000e+00  0.0000000000000000e+00  0.0000000000000000e+00  0.0000000000000000e+00  0.0000000000000000e+00  0.0000000000000000e+00  0.0000000000000000e+00  0.0000000000000000e+00  0.0000000000000000e+00  0.0000000000000000e+00  0.0000000000000000e+00  0.0000000000000000e+00  0.0000000000000000e+00  0.0000000000000000e+00  0.0000000000000000e+00  0.0000000000000000e+00  0.0000000000000000e+00  0.0000000000000000e+00  0.0000000000000000e+00  0.0000000000000000e+00  0.0000000000000000e+00  0.0000000000000000e+00  0.0000000000000000e+00  0.0000000000000000e+00  0.0000000000000000e+00  0.0000000000000000e+00  0.0000000000000000e+00  0.0000000000000000e+00  0.0000000000000000e+00  0.0000000000000000e+00  0.0000000000000000e+00  0.0000000000000000e+00  0.0000000000000000e+00  0.0000000000000000e+00  0.0000000000000000e+00  0.0000000000000000e+00  0.0000000000000000e+00  0.0000000000000000e+00  0.0000000000000000e+00  0.0000000000000000e+00  0.0000000000000000e+00  0.0000000000000000e+00  0.0000000000000000e+00  0.0000000000000000e+00  0.0000000000000000e+00  0.0000000000000000e+00  0.0000000000000000e+00  0.0000000000000000e+00  0.0000000000000000e+00  0.0000000000000000e+00  0.0000000000000000e+00  0.0000000000000000e+00  0.0000000000000000e+00  0.0000000000000000e+00  0.0000000000000000e+00  0.0000000000000000e+00  0.0000000000000000e+00  0.0000000000000000e+00  0.0000000000000000e+00  0.0000000000000000e+00  0.0000000000000000e+00  0.0000000000000000e+00  0.0000000000000000e+00  0.0000000000000000e+00  0.0000000000000000e+00  0.0000000000000000e+00  0.0000000000000000e+00  0.0000000000000000e+00  0.0000000000000000e+00  0.0000000000000000e+00  0.0000000000000000e+00  0.0000000000000000e+00  0.0000000000000000e+00  0.0000000000000000e+00  0.0000000000000000e+00  0.0000000000000000e+00  0.0000000000000000e+00  0.0000000000000000e+00  0.0000000000000000e+00  0.0000000000000000e+00  0.0000000000000000e+00  0.0000000000000000e+00  0.0000000000000000e+00  0.0000000000000000e+00  0.0000000000000000e+00  0.0000000000000000e+00  0.0000000000000000e+00  0.0000000000000000e+00  0.0000000000000000e+00  0.0000000000000000e+00  -3.3731175176375756e-02  -3.1673459062115474e-02  -2.9784929562031836e-02  -2.8201360467424979e-02  -2.6968124701906508e-02  -2.6101109871597306e-02  -2.5550314611555387e-02  -2.5467436599049310e-02  -2.5594656620804977e-02  -2.6142050892976859e-02  -2.7020727856093572e-02  -2.8210573965692598e-02  -2.9699866051607390e-02  -3.1562650209973335e-02  -3.3622571029659556e-02  -3.4287445045007511e-02  -3.2609004765117459e-02  -3.1039806016447329e-02  -2.9698140006718148e-02  -2.8597406001384672e-02  -2.7631230800172480e-02  -2.6883878251057119e-02  -2.6395900410029143e-02  -2.6043799363614530e-02  -2.5946095152953572e-02  -2.6048852519592141e-02  -2.6389094284370626e-02  -2.6971554686950599e-02  -2.7701072117047181e-02  -2.8773266838446675e-02  -2.9988655369541803e-02  -3.1335021013117768e-02  -3.2918465380344424e-02  -3.4615538386232145e-02  -3.4081483317135952e-02  -3.1940011320750340e-02  -3.0049853009937382e-02  -2.8449610204570583e-02  -2.7227313340995339e-02  -2.6346408886777844e-02  -2.5845103132903099e-02  -2.5652466585691570e-02  -2.5824159596661428e-02  -2.6407206069033979e-02  -2.7277556047463243e-02  -2.8470781359894792e-02  -3.0099244961070797e-02  -3.1992323978063730e-02  -3.4119123015753421e-02  -3.4598391550257082e-02  -3.2924652840723066e-02  -3.1401801143679783e-02  -3.0027787491613066e-02  -2.8788090448495968e-02  -2.7697172950160158e-02  -2.6969112618925768e-02  -2.6359972585265228e-02  -2.6004576980001338e-02  -2.5910626861875171e-02  -2.6034992804075174e-02  -2.6354439274745570e-02  -2.6799854062841907e-02  -2.7578865098055457e-02  -2.8572182686073606e-02  -2.9677202409961013e-02  -3.1037937305753081e-02  -3.2629769577542711e-02  -3.4315192122329155e-02  -2.4283872671254942e-02  -2.2313871886729349e-02  -2.4294991494934914e-02  -2.2307599049969120e-02  -2.3915324543417993e-02  -2.3476030523052048e-02  -2.4507514904152788e-02  -2.2730045043319741e-02  -2.1506660040284419e-02  -2.1855999873107188e-02  -2.1463923652557292e-02  -2.1512320021346763e-02  -2.1182866866976721e-02  -2.1239314203663394e-02  -2.5114203430092071e-02  -2.0401730392721942e-02  -2.4176124806843446e-02  -2.4750522971338968e-02  -2.0891494915439152e-02  -2.6011086404635821e-02  -2.7070368622631350e-02  -2.7089918043840137e-02  -2.7345523071400583e-02  -2.7102884072114364e-02  -2.9042186584319101e-02  -2.8423377454654734e-02  -2.9644619283071140e-02  -2.9460115809427569e-02  -2.5695162210268359e-02  -2.2085994518763311e-02  -2.0709066226040154e-02  -1.9089332606924154e-02  -1.7678986555003634e-02  -1.6145146239149963e-02  -1.4586343159840139e-02  -1.3135126074196923e-02  -1.8000649377346339e-02  -1.1351515937766043e-02  -1.0381205411115957e-02  -1.3291327826098393e-02  -1.0944262743889054e-02  -1.4036669876513039e-02  -1.2939834542321000e-02  -1.0124429031401844e-02  -1.2551179124642736e-02  -1.0603647112208150e-02  -1.3691901086438441e-02  -1.2878509224639180e-02  -1.6049029077522974e-02  -1.5958338711721903e-02  -1.3599019907627387e-02  -1.0819725794327271e-02  -1.2740901443283071e-02  -1.0644965503131669e-02  -1.2877040036304311e-02  -1.1158743581329164e-02  -1.3732070428502476e-02  -1.2433885394366790e-02  -1.5531237567175022e-02  -1.3914828379926920e-02  -1.0989225489135264e-02  -1.3410748053639499e-02  -1.0998889919062902e-02  -1.6435965677779864e-02  -1.6474591021046585e-02  -1.7215321823568261e-02  -1.6287247697462308e-02  -1.6130763923708429e-02  -1.7112891018236737e-02  -1.5139668747777014e-02  -1.2455105715647119e-02  -1.9554872056451698e-02  -1.7787957049185992e-02  -1.5800439482238329e-02  -1.6574179000006337e-02  -1.5337397725626487e-02  -1.2030623495174520e-02  -1.5622732749342848e-02  -1.2910243152265232e-02  -9.7397191899972618e-03  -1.1653470530477520e-02  -1.4398292315532746e-02  -1.4000145342554284e-02  -1.0427623199733642e-02  -1.3544883189582888e-02  -1.6445899600125786e-02  -1.6489450573097971e-02  -1.4512758662115944e-02  -1.9098464734786661e-02  -1.9541999437337112e-02  -2.1840813024029349e-02  -2.1918432514285546e-02  -8.9993832015509232e-03  -1.9428822758326417e-02  -1.9605572209953532e-02  -1.9512254650796486e-02  -1.7534722059826292e-02  -2.1989374501508421e-02  -2.2644258592094742e-02  -2.0842123482827428e-02  -1.5970770086000629e-02  -1.8301310089010273e-02  -2.0055406860624687e-02  -1.7549476830615689e-02  -1.5663265614231554e-02  -1.8305533361450421e-02  -1.9244759860836087e-02  -1.5791845955293420e-02  -1.8042593147428992e-02  -2.1005716256598896e-02  -2.1929530712097862e-02  -2.0534944685923061e-02  -1.9303257854075728e-02  -1.8594443324860609e-02  -2.0133381586692749e-02  -1.6541913333550512e-02  -8.4602523573308157e-03  -2.0770724552396400e-02  -8.4252009135652832e-03  -1.3972904847592501e-02  -1.6888597460608067e-02  -1.4465305824878405e-02  -1.7083964662739558e-02  -1.9052966894110061e-02  -1.9676629490708836e-02  -1.8371803727442008e-02  -1.6903803533819473e-02  -1.8540189857681636e-02  -1.8289174356390943e-02  -1.0006186336520607e-02  -2.4164485265569240e-02  -2.4494807976775272e-02  -1.7452876613204559e-02  -2.0004447262552582e-02  -1.9481677109281951e-02  -1.7535558744740273e-02  -1.8192170552899553e-02  -2.1016216169141524e-02  -1.9172608516270406e-02  -2.1306267351789827e-02  -2.1134873492835694e-02  -2.3456071851176964e-02  -2.5481378477515575e-02  -2.5540312823284426e-02  -1.8836319142952640e-02  -2.0919508022642950e-02  -2.1176137578679453e-02  -2.3398092682526728e-02  -2.5949239842178885e-02  -2.6772667778693769e-02  -2.2178239140950670e-02  -1.8807755107021568e-02  -1.6661428016793874e-02  -2.4652514848157461e-02  -2.3117776941430402e-02  -2.1768011797206329e-02  -2.5964999504396253e-02  -2.1460261541792331e-02  -2.0963502399255159e-02  -2.3289904685111201e-02  -2.6706633163638100e-02  -2.3439866430958960e-02  -2.1079315980751290e-02  -2.3595647816308140e-02  -2.0706822582507847e-02  -2.2484372953024693e-02  -2.0175828164098554e-02  -2.1794059355207875e-02  -2.4784294888861382e-02  -2.7648633535283938e-02  -2.6006559894717299e-02  -2.1501958238135978e-02  -1.7423429824042044e-02  -2.3997121253656700e-02  -2.3383774091833599e-02  -2.1949848969485024e-02  -2.9327132570607123e-02  -2.9341846851824897e-02  -2.9448159538223235e-02  -2.9639579025311811e-02  -2.2411205315928415e-02  -9.6442209971684869e-03  -8.0192454763677451e-03  -1.8936957073909223e-02  -2.3270300962328988e-02  -2.3703091536238195e-02  -2.3526032557723869e-02  -2.7275879520247206e-02  -2.1440256647472927e-02  -2.2635287020565682e-02  -1.7903664918403544e-02  -1.7429422910930061e-02  -2.1078099768964392e-02  -1.6460847927080340e-02  -8.6959952402926605e-03  -8.8416804644440537e-03  -1.2064286157890920e-02  -2.0663038729067457e-02  -2.2579788417805360e-02  -1.8223979372224430e-02  -1.9857673374895839e-02  -1.8345032219706493e-02  -2.1695547765827494e-02  -2.1781515069499286e-02  -9.2561167263683110e-03  -2.4366828372151993e-02  -1.8766768076787791e-02  -2.0165114804108712e-02  -1.6085728744643587e-02  -2.2119388566022673e-02  -1.6087516900184673e-02  -1.1961744684102774e-02  -2.2337272352679561e-02  -7.6619446126159358e-03  -1.5317716097603995e-02  -2.6729017223095432e-02  -1.6507593873652096e-02  -1.8619697835886961e-02  -1.9339471845114396e-02  -9.4958049517603147e-03  -2.2116781377279713e-02  -2.1094350657256154e-02  -1.8341085835824993e-02  -7.4264330020394672e-03  -1.9951918326421687e-02  -1.9420511523260887e-02  -7.9839761279576014e-03  -1.5626641280883986e-02  -1.8192677212735726e-02  -7.4427628894182495e-03  -1.5820539845000096e-02  -2.0643705550726442e-02  -2.1779683185223268e-02  -1.8352513006829503e-02  -1.4977579367963373e-02  -1.8794830839434905e-02  -2.2660446459160266e-02  -1.6390839625477688e-02  -3.1411551579214089e-02  -3.1678530444393192e-02  -3.1423989337588505e-02  -3.1737448705515772e-02  -2.1399712194245246e-02  -2.4398059506635792e-02  -2.0473060441612307e-02  -2.2619266043155308e-02  -1.9205850327319720e-02  -1.5130727149163617e-02  -2.3740935309713346e-02  -2.2322434831858140e-02  -1.8482493267288038e-02  -1.4121467709476154e-02  -1.5256186204179798e-02  -1.3716152974237951e-02  -2.1423078455381498e-02  -1.4049635558649106e-02  -1.9417813120662011e-02  -1.3579617313214840e-02  -7.6120593371654137e-03  -1.8474737751849796e-02  -1.5898617261260097e-02  -1.7616196570800401e-02  -1.8468940744784248e-02  -1.4746494649161928e-02  -1.4229723891721023e-02  -8.6713098857273616e-03  -2.5404442405840721e-02  -3.1453503687671761e-02  -3.1905396876028849e-02  -3.4155488407552448e-02  -3.7160970148191599e-02  -3.4197014172747550e-02  -3.7906686127625024e-02  -3.1761517655798176e-02  -3.3689343681378055e-02  -3.1734568614025772e-02  -3.3888838058750953e-02  -3.7432111068202163e-02  -3.7044743621637496e-02  -1.6840458801234342e-02  -1.4975649076693291e-02  -1.8086927548477363e-02  -1.5603604616502101e-02  -3.0570919335583684e-02  -3.5241840346134048e-02  -3.5614744711761515e-02  -3.0774242898069702e-02  -4.0643141885929823e-02  -4.4562708083107132e-02  -3.1553410837834223e-02  -3.1187837260957765e-02  -3.7298040200193228e-02  -4.5339235745244143e-02  -4.7702293843651392e-02  -4.7869859493876760e-02  -4.9347996997682768e-02  -4.9874160607493966e-02  -1.8764172030895764e-02  -1.8174869273552503e-02  -1.8732060303561806e-02  -1.8190062769969598e-02  -1.6555238806941246e-02  -1.6177803770330599e-02  -1.7142208002539672e-02  -4.9600882348498757e-02  -5.0402591567866924e-02  -4.7204363571243482e-02  -4.5510399915537195e-02  -1.7945598933624407e-02  -1.7279247911196300e-02  -1.6651294573824464e-02  -1.6292798142355677e-02  -1.7615101504115126e-02  -1.6675844862697509e-02  -1.8978515304421507e-02  -1.6481560358694355e-02  -4.5555979261332410e-02  -4.4431053076742451e-02  -1.8441884255367746e-02  -1.6585330646020559e-02  -1.8458146768547328e-02  -4.1300569508362514e-02  -4.4315708806995570e-02  -4.6721943575439011e-02  -4.8217751969768421e-02  -4.9508629331944227e-02  -4.9422494419959176e-02  -4.8369343040216270e-02  -4.9683030697393181e-02  -5.0069836071492534e-02  -4.7912592985887278e-02  -4.1328306761455096e-02  -4.4571532921208495e-02  -4.6819784484353678e-02  -4.8283880893646804e-02  -4.6781664218887416e-02  -4.9626893163072526e-02  -4.9511050419971871e-02  -4.9928128801032957e-02  -5.0267693191115764e-02  -4.8285586846881841e-02  -3.3274176709922235e-02  -4.0683583184653024e-02  -4.4624967435362595e-02  -4.5426110750611245e-02  -4.7854982848213976e-02  -4.8000517335713803e-02  -4.9510031527127629e-02  -5.0049083723917490e-02  -4.9827475185801239e-02  -5.0398841162249526e-02  -3.0023867455451679e-02  -3.0214088961917619e-02  -3.2268768057574823e-02  -3.2540918389113736e-02  -4.8461949881200818e-02  -4.8944383421011928e-02  -4.9422445404151472e-02  -4.8409348527813423e-02  -4.8654676493868537e-02  -4.9534038646133031e-02  -1.7417520267236107e-02  -4.8561958613717850e-02  -5.0569739119305658e-02  -4.8157808067771417e-02  -4.8330167091625666e-02  -5.0116885916774385e-02  -4.8315636812788054e-02  -3.3440516942955439e-02  -4.5646234661765511e-02  -4.5592241925125641e-02  -1.4412502698051230e-02  -1.3454259779882759e-02  -1.4428762398717637e-02  -4.4302529061333300e-02  -4.5214103535108144e-02  -4.1795445419954065e-02  -4.1087283107960365e-02  -4.7615069990975672e-02  -4.9643465521147338e-02  -4.7239568283564494e-02  -4.9207621333693746e-02  -4.6185160297303421e-02  -4.9159944269870838e-02  -4.6214531644919565e-02  -4.8858723286942851e-02  -4.5871927114331752e-02  -4.7931906209747022e-02  -4.6180050469536889e-02  -4.9073623718315834e-02  -4.6100487850517534e-02  -4.8575449130834163e-02  -4.5713720705991154e-02  -4.7940312849772945e-02  -4.5219186348030738e-02  -4.7417531539705633e-02  -4.4848977863203417e-02  -4.7082165632252655e-02  -4.4543108750019308e-02  -4.6930391092886103e-02  -4.4321230395247907e-02  -4.6996294597991817e-02  -4.5220049251477372e-02  -4.7326798524869693e-02  -4.4758361788976075e-02  -4.6952149520908822e-02  -4.4414332963853845e-02  -4.6792104695879813e-02  -4.4151858103601789e-02  -4.6883200731966980e-02  -4.4644632971264128e-02  -4.4089677846351621e-02  -4.7792909201095891e-02  -4.7698366789236155e-02  -4.4371416387371965e-02  -4.3552924039124134e-02  -4.4528920202469291e-02  -4.7316671064539038e-02  -4.4719457871169072e-02  -4.7734498803994357e-02  -4.4822662276826200e-02  -4.4347712012355163e-02  -4.7172222965478697e-02  -4.4462779771020838e-02  -4.7552100380885393e-02  -4.4553329461559973e-02  -4.7713410954405615e-02  -4.4836738281619423e-02  -4.3663974714383116e-02  -4.7255940284156216e-02  -4.7937087337803476e-02  -4.7313720590188707e-02  -4.8041012191880859e-02  -4.6213191411268784e-02  -3.9661616109917787e-02  -4.6406656647971306e-02  -3.9668870666776386e-02  -4.6388410037081176e-02  -3.8827393102536099e-02  -4.6501116057562020e-02  -4.5241961458344630e-02  -4.1033330126898582e-02  -3.8835578552080023e-02  -3.8684117298811632e-02  -4.5042214673870165e-02  -4.0135576959924882e-02  -4.7558809218710633e-02  -3.8260018800452288e-02  -4.7629398280517939e-02  -3.5657709404361956e-02  -3.5905484316577481e-02  -3.4965689733729724e-02  -4.0757303315391805e-02  -3.7410190296211024e-02  -4.1326963841173826e-02  -3.0065307848285702e-02  -4.9896611915143593e-02  -1.1570212408488538e-02  -4.3433212043586918e-02  -4.9857098916572272e-02  -3.9625690107862849e-02  -3.4879963405464641e-02  -3.9459359942168502e-02  -3.9583267756634795e-02  -4.4859909366534285e-02  -4.4920964038200166e-02  -4.2902845465658125e-02  -4.5633739953314933e-02  -4.3915057098928650e-02  -4.4629974775571159e-02  -4.3239161791232668e-02  -4.1437428335021946e-02  -4.0510208612641901e-02  -4.3363721012005751e-02  -4.1894265425035715e-02  -3.9670272457085792e-02  -4.0565703546403167e-02  -3.8923672717920167e-02  -3.9820574398798103e-02  -3.8654122883554021e-02  -3.9415853942385712e-02  -3.8814680617515335e-02  -3.9693197301126526e-02  -3.6729399950567239e-02  -4.0965400351045497e-02  -4.1096447350943706e-02  -4.0196437089039021e-02  -3.0409339955685483e-02  -3.9151817910115502e-02  -3.7223057613783701e-02  -3.7996570447387849e-02  -3.4574793741867754e-02  -1.0555882420420404e-02  -1.2283014559217246e-02  -1.1630795513936995e-02  -4.3252161010439723e-02  -3.9103009630204674e-02  -4.6122546339651065e-02  -4.1200046365511500e-02  -4.3909404235542397e-02  -3.1403217154060109e-02  -3.2360923849568984e-02  -3.3021934871607844e-02  -3.7354696302396524e-02  -4.0553399465875342e-02  -4.3418312563987649e-02  -4.1842963513749845e-02  -3.7363227998957284e-02  -3.9869274930672917e-02  -4.0546759133008425e-02  -3.9955676962475567e-02  -3.8102816232692661e-02  -3.9319322847153636e-02  -3.5938636729231109e-02  -3.8484001350478719e-02  -3.8981148950367903e-02  -3.9366972482665977e-02  -3.7461413812816521e-02  -3.9745942868347178e-02  -3.6246378253705594e-02  -3.9699514926679662e-02  -4.0290835624156175e-02  -4.1450226993216967e-02  -3.9486185882398779e-02  -4.2708902549305448e-02  -3.8816694723488317e-02  -4.3614854649697013e-02  -3.7406975068967376e-02  -4.2388784266975128e-02  -4.4354971020410500e-02  -4.5721175643695010e-02  -4.3997229129865728e-02  -4.9620260601121867e-02  -4.7802892138884265e-02  -3.5037525439639478e-02  -3.2413767624325664e-02  -4.4301237647376965e-02  -4.3941719126916363e-02  -4.7268731709015778e-02  -3.8356242893822549e-02  -4.8777395553529231e-02  -3.4396876537947617e-02  -4.0108455143498506e-02  -3.9573925321620157e-02  -4.4140521274083813e-02  -3.3352010547339335e-02  -3.9944724060828933e-02  -3.7741297478075773e-02  -3.8598318967461603e-02  -3.8211591853448877e-02  -4.0013471784660970e-02  -4.0301259552008903e-02  -3.5928867987804883e-02  -3.8906909003697324e-02  -3.80239767196