<?xml version="1.0"?>
<VTKFile type="UnstructuredGrid"  version="0.1"  >
<UnstructuredGrid>
<Piece  NumberOfPoints="1297" NumberOfCells="2496">
<Points>
<DataArray  type="Float64"  NumberOfComponents="3"  format="ascii">0 0 0  0 1 0  1 1 0  1 0 0  1.1 -0.1 0  -0.1 -0.1 0  1.1 1.1 0  -0.1 1.1 0  0.2749074097298657 0.6788144630257301 0  0.2756196408672501 0.321541273989331 0  0.7253056159377569 0.3209168627835011 0  0.7252886235875162 0.6792230974241558 0  0.5002354856415029 0.5001220966825867 0  0 0.9499999999997918 0  0 0.8999999999995836 0  0 0.8499999999996529 0  0 0.7999999999999998 0  0 0.7500000000003466 0  0 0.7000000000006934 0  0 0.6500000000010401 0  0 0.6000000000013869 0  0 0.5500000000017335 0  0 0.5000000000020587 0  0 0.4500000000018723 0  0 0.4000000000016644 0  0 0.3500000000014564 0  0 0.3000000000012483 0  0 0.2500000000010403 0  0 0.2000000000008322 0  0 0.1500000000006241 0  0 0.100000000000416 0  0 0.05000000000020799 0  0.04999999999989965 0 0  0.09999999999981467 0 0  0.1499999999997036 0 0  0.1999999999995579 0 0  0.2499999999994121 0 0  0.2999999999992664 0 0  0.3499999999991206 0 0  0.3999999999989749 0 0  0.4499999999988292 0 0  0.4999999999986943 0 0  0.5499999999988151 0 0  0.5999999999989468 0 0  0.6499999999990784 0 0  0.69999999999921 0 0  0.7499999999993417 0 0  0.7999999999994734 0 0  0.8499999999996051 0 0  0.8999999999997368 0 0  0.9499999999998684 0 0  1 0.04999999999989965 0  1 0.09999999999981467 0  1 0.1499999999997036 0  1 0.1999999999995579 0  1 0.2499999999994121 0  1 0.2999999999992664 0  1 0.3499999999991206 0  1 0.3999999999989749 0  1 0.4499999999988292 0  1 0.4999999999986943 0  1 0.5499999999988151 0  1 0.5999999999989468 0  1 0.6499999999990784 0  1 0.69999999999921 0  1 0.7499999999993417 0  1 0.7999999999994734 0  1 0.8499999999996051 0  1 0.8999999999997368 0  1 0.9499999999998684 0  0.9499999999997918 1 0  0.8999999999995836 1 0  0.8499999999996529 1 0  0.7999999999999998 1 0  0.7500000000003466 1 0  0.7000000000006934 1 0  0.6500000000010401 1 0  0.6000000000013869 1 0  0.5500000000017335 1 0  0.5000000000020587 1 0  0.4500000000018723 1 0  0.4000000000016644 1 0  0.3500000000014564 1 0  0.3000000000012483 1 0  0.2500000000010403 1 0  0.2000000000008322 1 0  0.1500000000006241 1 0  0.100000000000416 1 0  0.05000000000020799 1 0  -0.1 1.05000000000004 0  -0.1 1.000000000000079 0  -0.1 0.9500000000001624 0  -0.1 0.9000000000003032 0  -0.1 0.850000000000444 0  -0.1 0.8000000000005848 0  -0.1 0.7500000000007256 0  -0.1 0.7000000000008665 0  -0.1 0.6500000000010508 0  -0.1 0.6000000000012352 0  -0.1 0.5500000000014196 0  -0.1 0.500000000001539 0  -0.1 0.4500000000014195 0  -0.1 0.4000000000013 0  -0.1 0.3500000000011588 0  -0.1 0.3000000000010178 0  -0.1 0.2500000000008986 0  -0.1 0.2000000000007579 0  -0.1 0.1500000000006174 0  -0.1 0.1000000000005272 0  -0.1 0.05000000000040083 0  -0.1 2.671196597248127e-13 0  -0.1 -0.0499999999998666 0  -0.0500000000000906 -0.1 0  -1.730560139634463e-13 -0.1 0  0.04999999999975802 -0.1 0  0.09999999999961506 -0.1 0  0.1499999999994613 -0.1 0  0.199999999999302 -0.1 0  0.2499999999991446 -0.1 0  0.2999999999990088 -0.1 0  0.3499999999988296 -0.1 0  0.3999999999986936 -0.1 0  0.4499999999985143 -0.1 0  0.4999999999984002 -0.1 0  0.5499999999985247 -0.1 0  0.5999999999986493 -0.1 0  0.6499999999987955 -0.1 0  0.6999999999989417 -0.1 0  0.7499999999990659 -0.1 0  0.7999999999992116 -0.1 0  0.8499999999993573 -0.1 0  0.8999999999994526 -0.1 0  0.949999999999584 -0.1 0  0.9999999999997226 -0.1 0  1.049999999999861 -0.1 0  1.1 -0.0500000000000906 0  1.1 -1.730560139634463e-13 0  1.1 0.04999999999975802 0  1.1 0.09999999999961506 0  1.1 0.1499999999994613 0  1.1 0.199999999999302 0  1.1 0.2499999999991446 0  1.1 0.2999999999990088 0  1.1 0.3499999999988296 0  1.1 0.3999999999986936 0  1.1 0.4499999999985143 0  1.1 0.4999999999984002 0  1.1 0.5499999999985247 0  1.1 0.5999999999986493 0  1.1 0.6499999999987955 0  1.1 0.6999999999989417 0  1.1 0.7499999999990659 0  1.1 0.7999999999992116 0  1.1 0.8499999999993573 0  1.1 0.8999999999994526 0  1.1 0.949999999999584 0  1.1 0.9999999999997226 0  1.1 1.049999999999861 0  1.05000000000004 1.1 0  1.000000000000079 1.1 0  0.9500000000001624 1.1 0  0.9000000000003032 1.1 0  0.850000000000444 1.1 0  0.8000000000005848 1.1 0  0.7500000000007256 1.1 0  0.7000000000008665 1.1 0  0.6500000000010508 1.1 0  0.6000000000012352 1.1 0  0.5500000000014196 1.1 0  0.500000000001539 1.1 0  0.4500000000014195 1.1 0  0.4000000000013 1.1 0  0.3500000000011588 1.1 0  0.3000000000010178 1.1 0  0.2500000000008986 1.1 0  0.2000000000007579 1.1 0  0.1500000000006174 1.1 0  0.1000000000005272 1.1 0  0.05000000000040083 1.1 0  2.671196597248127e-13 1.1 0  -0.0499999999998666 1.1 0  0.2673555246396373 0.6627485147482982 0  0.2623167258398608 0.6419434834335127 0  0.2589652161728082 0.6195063944407532 0  0.2567735890914443 0.596198447107179 0  0.2552687572021535 0.5724529414247025 0  0.2542854137936691 0.5484419649025747 0  0.2537432152640853 0.5242815299200937 0  0.2536032024801409 0.5000687923354379 0  0.2538526723545849 0.4758453208393775 0  0.2545076019691889 0.4516834805987179 0  0.2556225134619404 0.4276847029684767 0  0.2572760081255809 0.4039543824773029 0  0.2596408839990398 0.3806751229392972 0  0.2630624555849039 0.3582394690062493 0  0.268149193727622 0.3375056664200698 0  0.2913832989963328 0.3134889079705721 0  0.3116347821252219 0.3075623239185668 0  0.3337102395972117 0.3032170979724763 0  0.356645603931761 0.2998586404439387 0  0.3800796893445245 0.2972044908543836 0  0.4038228140527022 0.2951085521368773 0  0.4277579967430681 0.2935033672016805 0  0.4518352192093908 0.2923484366477986 0  0.4759922688793616 0.2916349425714633 0  0.5001911438196639 0.2913603359556322 0  0.5243937914943634 0.2915257999461506 0  0.5485595057480745 0.2921323577706178 0  0.5726581388872102 0.2931935656591845 0  0.5966170157168565 0.2947147703441598 0  0.6203863232588204 0.2967376222389635 0  0.6438672096304968 0.2993264742524122 0  0.6668689948118597 0.3026421618511777 0  0.6890374534566013 0.3069522419483082 0  0.7093675526909309 0.3128702733069365 0  0.7327554127462721 0.3371704195715772 0  0.7378775046631133 0.3579015802609529 0  0.7413082176876409 0.3804197219630699 0  0.7436617117564708 0.403782461721536 0  0.7452915500023873 0.4275748795417424 0  0.7463717810657946 0.4516206316021078 0  0.746993282627999 0.4758125062412305 0  0.7472005829999023 0.5000741877946835 0  0.7470061151517474 0.5243401955551212 0  0.7463951661443535 0.548543772122276 0  0.745329167369666 0.5725953593233254 0  0.743698244264106 0.5963902710484915 0  0.7413445611923076 0.6197340987943153 0  0.7379139676193424 0.6422513644702094 0  0.7327796385404595 0.6629772576979464 0  0.7093753455174996 0.6873130557755553 0  0.6890400406347585 0.69326677666204 0  0.6668829854959049 0.6976157194504733 0  0.6438762558675537 0.7009418974565929 0  0.6203890522766387 0.7035500564327137 0  0.5966062214699327 0.7055875816711297 0  0.57262481306588 0.7071214542910909 0  0.548510982608916 0.70818671821971 0  0.5243270951208036 0.7088003147658883 0  0.5001077703213572 0.7089701021818365 0  0.4758911148639646 0.7086996214221067 0  0.4517172326995583 0.7079890463947717 0  0.4276205674065649 0.7068403552213303 0  0.403655495986267 0.7052294136467098 0  0.3798791700774067 0.7031348240966258 0  0.35639042321733 0.7004836533146279 0  0.3333742306369759 0.6971315974959221 0  0.311203896646709 0.6927847541242161 0  0.2908160335259543 0.6868761736131199 0  0.3684844714495539 0.3210995968658989 0  0.277070879810464 0.4395335231114366 0  0.3682644895797901 0.6792032561561955 0  0.2768213222528061 0.5606210896556119 0  0.7241446260446424 0.5842301251750313 0  0.6083885816502448 0.6827132340731207 0  0.6310269438872971 0.3201962227028171 0  0.7252665864396385 0.4386868917488849 0  0.7254847155440343 0.5116192585239903 0  0.5598546611857776 0.3141482899191146 0  0.4408488910482008 0.316290685171804 0  0.4393227695845676 0.6844105689106478 0  0.5363768278913552 0.6859120878640655 0  0.2758657505870018 0.4879332301062834 0  0.278282123629896 0.3918704211703405 0  0.4883180402090257 0.3170383549292079 0  0.2835231460078856 0.606478337670643 0  0.716918450435812 0.3897111562764295 0  0.4880406020402591 0.6861910906644143 0  0.6554742639027623 0.6773703782241739 0  0.3220479768061579 0.3288503271526226 0  0.6788942249678234 0.3297380361625555 0  0.3223320186569846 0.6736165179035644 0  0.7177125630007247 0.6330211967867436 0  0.2848256613712884 0.3469174164912636 0  0.2865537541673677 0.6519908755409556 0  0.6999077087107088 0.670557766712864 0  0.716684404380859 0.3459974471373442 0  0.3449816117691544 0.6766330449560707 0  0.3568356874856928 0.6562413254178219 0  0.3801107130189584 0.6578919588293722 0  0.3679765217345198 0.6349587572800182 0  0.3923271070875922 0.6360877547275443 0  0.3790956371567731 0.6106954965801656 0  0.4082057944665179 0.611602900748986 0  0.392061170824886 0.5812962420392463 0  0.3506528913987302 0.6090218312825766 0  0.4274674793017536 0.581457275453972 0  0.4072014292380182 0.546802421929342 0  0.3661212831563049 0.5523382764754855 0  0.3838790897315713 0.5140274979741273 0  0.3454192368606703 0.5161869043932444 0  0.3587605684512052 0.4821676231308179 0  0.3993301857711958 0.4771649239928617 0  0.3773702601251248 0.4451664251568582 0  0.4145235475464288 0.4402564375197271 0  0.3932192710986598 0.4100738733901826 0  0.4274604216298854 0.3990575197671792 0  0.3579486174061926 0.4110227709157617 0  0.4019826621988611 0.3784523904795716 0  0.4366443728819551 0.6136108371273395 0  0.4637702705816159 0.5889738311682791 0  0.4829883806512418 0.6141513613871117 0  0.5024635647446883 0.5905016208466375 0  0.5210045160508048 0.6143760817982504 0  0.5402320478900194 0.5910040235113647 0  0.5584966517042391 0.6151620264902982 0  0.5774160159212098 0.5921429636808068 0  0.5963354750995281 0.6188177292306639 0  0.6138871894044649 0.5869147644522661 0  0.5968826789282561
[...]
<PointData  Scalars="state"> 
<DataArray  type="Float64"  Name="state"  format="ascii">0.0000000000000000e+00  0.0000000000000000e+00  0.0000000000000000e+00  0.0000000000000000e+00  0.0000000000000000e+00  0.0000000000000000e+00  0.0000000000000000e+00  0.0000000000000000e+00  -3.5302809473079906e-02  -3.5266685238191667e-02  -3.5607962503455180e-02  -3.5601072624007926e-02  -6.9842330686515396e-03  0.0000000000000000e+00  0.0000000000000000e+00  0.0000000000000000e+00  0.0000000000000000e+00  0.0000000000000000e+00  0.0000000000000000e+00  0.0000000000000000e+00  0.0000000000000000e+00  0.0000000000000000e+00  0.0000000000000000e+00  0.0000000000000000e+00  0.0000000000000000e+00  0.0000000000000000e+00  0.0000000000000000e+00  0.0000000000000000e+00  0.0000000000000000e+00  0.0000000000000000e+00  0.0000000000000000e+00  0.0000000000000000e+00  0.0000000000000000e+00  0.0000000000000000e+00  0.0000000000000000e+00  0.0000000000000000e+00  0.0000000000000000e+00  0.0000000000000000e+00  0.0000000000000000e+00  0.0000000000000000e+00  0.0000000000000000e+00  0.0000000000000000e+00  0.0000000000000000e+00  0.0000000000000000e+00  0.0000000000000000e+00  0.0000000000000000e+00  0.0000000000000000e+00  0.0000000000000000e+00  0.0000000000000000e+00  0.0000000000000000e+00  0.0000000000000000e+00  0.0000000000000000e+00  0.0000000000000000e+00  0.0000000000000000e+00  0.0000000000000000e+00  0.0000000000000000e+00  0.0000000000000000e+00  0.0000000000000000e+00  0.0000000000000000e+00  0.0000000000000000e+00  0.0000000000000000e+00  0.0000000000000000e+00  0.0000000000000000e+00  0.0000000000000000e+00  0.0000000000000000e+00  0.0000000000000000e+00  0.0000000000000000e+00  0.0000000000000000e+00  0.0000000000000000e+00  0.0000000000000000e+00  0.0000000000000000e+00  0.0000000000000000e+00  0.0000000000000000e+00  0.0000000000000000e+00  0.0000000000000000e+00  0.0000000000000000e+00  0.0000000000000000e+00  0.0000000000000000e+00  0.0000000000000000e+00  0.0000000000000000e+00  0.0000000000000000e+00  0.0000000000000000e+00  0.0000000000000000e+00  0.0000000000000000e+00  0.0000000000000000e+00  0.0000000000000000e+00  0.0000000000000000e+00  0.0000000000000000e+00  0.0000000000000000e+00  0.0000000000000000e+00  0.0000000000000000e+00  0.0000000000000000e+00  0.0000000000000000e+00  0.0000000000000000e+00  0.0000000000000000e+00  0.0000000000000000e+00  0.0000000000000000e+00  0.0000000000000000e+00  0.0000000000000000e+00  0.0000000000000000e+00  0.0000000000000000e+00  0.0000000000000000e+00  0.0000000000000000e+00  0.0000000000000000e+00  0.0000000000000000e+00  0.0000000000000000e+00  0.0000000000000000e+00  0.0000000000000000e+00  0.0000000000000000e+00  0.0000000000000000e+00  0.0000000000000000e+00  0.0000000000000000e+00  0.0000000000000000e+00  0.0000000000000000e+00  0.0000000000000000e+00  0.0000000000000000e+00  0.0000000000000000e+00  0.0000000000000000e+00  0.0000000000000000e+00  0.0000000000000000e+00  0.0000000000000000e+00  0.0000000000000000e+00  0.0000000000000000e+00  0.0000000000000000e+00  0.0000000000000000e+00  0.0000000000000000e+00  0.0000000000000000e+00  0.0000000000000000e+00  0.0000000000000000e+00  0.0000000000000000e+00  0.0000000000000000e+00  0.0000000000000000e+00  0.0000000000000000e+00  0.0000000000000000e+00  0.0000000000000000e+00  0.0000000000000000e+00  0.0000000000000000e+00  0.0000000000000000e+00  0.0000000000000000e+00  0.0000000000000000e+00  0.0000000000000000e+00  0.0000000000000000e+00  0.0000000000000000e+00  0.0000000000000000e+00  0.0000000000000000e+00  0.0000000000000000e+00  0.0000000000000000e+00  0.0000000000000000e+00  0.0000000000000000e+00  0.0000000000000000e+00  0.0000000000000000e+00  0.0000000000000000e+00  0.0000000000000000e+00  0.0000000000000000e+00  0.0000000000000000e+00  0.0000000000000000e+00  0.0000000000000000e+00  0.0000000000000000e+00  0.0000000000000000e+00  0.0000000000000000e+00  0.0000000000000000e+00  0.0000000000000000e+00  0.0000000000000000e+00  0.0000000000000000e+00  0.0000000000000000e+00  0.0000000000000000e+00  0.0000000000000000e+00  0.0000000000000000e+00  0.0000000000000000e+00  0.0000000000000000e+00  0.0000000000000000e+00  0.0000000000000000e+00  0.0000000000000000e+00  0.0000000000000000e+00  0.0000000000000000e+00  0.0000000000000000e+00  0.0000000000000000e+00  0.0000000000000000e+00  0.0000000000000000e+00  0.0000000000000000e+00  0.0000000000000000e+00  -3.3465650396716076e-02  -3.1592109360717845e-02  -2.9815433106308541e-02  -2.8300567145142765e-02  -2.7112846648631436e-02  -2.6273509707540423e-02  -2.5737155793955371e-02  -2.5660374708550700e-02  -2.5782989853195725e-02  -2.6315917286232803e-02  -2.7166995880503291e-02  -2.8312974995088416e-02  -2.9732433459481480e-02  -3.1481483867640173e-02  -3.3354943228367712e-02  -3.3989825814209194e-02  -3.2488468197871441e-02  -3.1030553154611194e-02  -2.9760746429525566e-02  -2.8708081935786212e-02  -2.7774050760024833e-02  -2.7046773015187434e-02  -2.6572107621963603e-02  -2.6227298839504549e-02  -2.6131321927105544e-02  -2.6230810012212284e-02  -2.6561669107253213e-02  -2.7126474277537959e-02  -2.7833396106174899e-02  -2.8868593016408650e-02  -3.0033157434861592e-02  -3.1304587008632270e-02  -3.2775132400462217e-02  -3.4289541835038795e-02  -3.3787244193095638e-02  -3.1832850307290488e-02  -3.0054341031253567e-02  -2.8520955284407450e-02  -2.7342929890098434e-02  -2.6490132785061449e-02  -2.6004010477057377e-02  -2.5816275825555682e-02  -2.5983744231792755e-02  -2.6551022490377246e-02  -2.7394211767553387e-02  -2.8541883844832666e-02  -3.0102313844874464e-02  -3.1884190470689334e-02  -3.3824920663242899e-02  -3.4270905901327441e-02  -3.2776368118303770e-02  -3.1367399139153034e-02  -3.0067907933856920e-02  -2.8880436645984144e-02  -2.7825884993979047e-02  -2.7120186699032628e-02  -2.6527400540342402e-02  -2.6181066169876508e-02  -2.6091230303932372e-02  -2.6214363036741573e-02  -2.6526218674798364e-02  -2.6958643611381162e-02  -2.7715808177880386e-02  -2.8676348991089614e-02  -2.9735270312882037e-02  -3.1027421598593084e-02  -3.2508644976743550e-02  -3.4016656127845088e-02  -2.4335162919566222e-02  -2.2432549852256286e-02  -2.4341336223412759e-02  -2.2424834920842698e-02  -2.3976565527714613e-02  -2.3541708388844979e-02  -2.4541572987466065e-02  -2.2821529091317561e-02  -2.1626838229796774e-02  -2.1968712756596787e-02  -2.1580382481375185e-02  -2.1623447634708776e-02  -2.1299080786255843e-02  -2.1387421026171163e-02  -2.5152988846343826e-02  -2.0523330795973637e-02  -2.4211198058015748e-02  -2.4751201598772671e-02  -2.1014497403870052e-02  -2.5991313233878936e-02  -2.7009975916815969e-02  -2.7005350132706784e-02  -2.7285496397314278e-02  -2.7033376195928587e-02  -2.8905312956434615e-02  -2.8296725407847348e-02  -2.9464757936450172e-02  -2.9288118826138951e-02  -2.5696443232942845e-02  -2.2110201221871930e-02  -2.0758582956051361e-02  -1.9127815679116568e-02  -1.7730812057189384e-02  -1.6192949301491320e-02  -1.4635115845827480e-02  -1.3183292539218053e-02  -1.8041259237289504e-02  -1.1391246391309411e-02  -1.0424891766666240e-02  -1.3352705270420260e-02  -1.1000680136598807e-02  -1.4116964152923628e-02  -1.3012263626800739e-02  -1.0173356444967982e-02  -1.2608928925589869e-02  -1.0646886027453001e-02  -1.3742374541297271e-02  -1.2925963536795225e-02  -1.6105302981569050e-02  -1.6013525933684658e-02  -1.3647572441840391e-02  -1.0853702564703367e-02  -1.2786569940749734e-02  -1.0674716293348296e-02  -1.2920029718457555e-02  -1.1187801003806133e-02  -1.3772992378177109e-02  -1.2464291214798936e-02  -1.5567191415155314e-02  -1.3947087177447619e-02  -1.1019299006708151e-02  -1.3451545394017241e-02  -1.1035539959454329e-02  -1.6471129500916316e-02  -1.6527892615727884e-02  -1.7266771285123775e-02  -1.6359001743700627e-02  -1.6213352248156246e-02  -1.7215603890476942e-02  -1.5202734231936006e-02  -1.2501688052988352e-02  -1.9622091745898074e-02  -1.7861672568895266e-02  -1.5870825360431051e-02  -1.6642797873499999e-02  -1.5407494148778405e-02  -1.2074005422393718e-02  -1.5693603610788087e-02  -1.2955461780459008e-02  -9.7667744210016786e-03  -1.1684707366430373e-02  -1.4441881577782888e-02  -1.4035101062432156e-02  -1.0456215665218295e-02  -1.3580181681795206e-02  -1.6477777060756774e-02  -1.6523962253426346e-02  -1.4556472501652498e-02  -1.9113916753895104e-02  -1.9565621804462453e-02  -2.1832865168032557e-02  -2.1910991347543408e-02  -9.0245876843188366e-03  -1.9467325795748034e-02  -1.9619028021800773e-02  -1.9577693747622683e-02  -1.7608664098446216e-02  -2.1995186662794469e-02  -2.2624550205202223e-02  -2.0844155543416811e-02  -1.6039086491423583e-02  -1.8394685172943199e-02  -2.0142453777996321e-02  -1.7635642979249563e-02  -1.5740933958509562e-02  -1.8370584202920832e-02  -1.9285331088018030e-02  -1.5883970955883432e-02  -1.8141738459584198e-02  -2.1049213428283291e-02  -2.1942604272512194e-02  -2.0559983514608113e-02  -1.9407395037297579e-02  -1.8671960885160953e-02  -2.0262340049848990e-02  -1.6606738057179580e-02  -8.4814935879770521e-03  -2.0846386265042073e-02  -8.4579317218974361e-03  -1.4028195032688394e-02  -1.6967132175521035e-02  -1.4524654130022283e-02  -1.7159663190950192e-02  -1.9149975418122914e-02  -1.9769059697748816e-02  -1.8437028998399989e-02  -1.6954145721160802e-02  -1.8595517265564791e-02  -1.8404783164681842e-02  -1.0037804914402893e-02  -2.4122430656876418e-02  -2.4455644663916649e-02  -1.7479051787057442e-02  -2.0025625294367026e-02  -1.9503327059798133e-02  -1.7574874850235025e-02  -1.8253397328630645e-02  -2.1052805470687497e-02  -1.9222079587080079e-02  -2.1322370251874313e-02  -2.1196509978267119e-02  -2.3450162792907001e-02  -2.5434099184703157e-02  -2.5546038552169220e-02  -1.8960153494030404e-02  -2.1048965610543559e-02  -2.1296714589836511e-02  -2.3387968600203698e-02  -2.5887234600462095e-02  -2.6736328715997282e-02  -2.2275960244545097e-02  -1.8886475169690012e-02  -1.6720938883962234e-02  -2.4657528793636630e-02  -2.3194890762387871e-02  -2.1855027373078491e-02  -2.5953517821518179e-02  -2.1558205333370391e-02  -2.1085609527946282e-02  -2.3374801117678954e-02  -2.6673128814058866e-02  -2.3442744547261720e-02  -2.1202819440056454e-02  -2.3652230058995364e-02  -2.0765610286310212e-02  -2.2573932689936620e-02  -2.0233374093445076e-02  -2.1901048999898701e-02  -2.4815251180307394e-02  -2.7560889823488487e-02  -2.5924732406862324e-02  -2.1529655568055979e-02  -1.7513099220269831e-02  -2.3965099945396279e-02  -2.3451699519382023e-02  -2.1979800512082384e-02  -2.9176795868260313e-02  -2.9189174603354233e-02  -2.9278389660056834e-02  -2.9457386099396552e-02  -2.2500066846677387e-02  -9.6780533013269970e-03  -8.0377937625596124e-03  -1.9028948106657947e-02  -2.3358442466190635e-02  -2.3791093838852251e-02  -2.3537743919818024e-02  -2.7204819095807763e-02  -2.1563294412872493e-02  -2.2639987980935371e-02  -1.7990829268405811e-02  -1.7475393025623558e-02  -2.1206261708309710e-02  -1.6562842814010274e-02  -8.7330080726575870e-03  -8.8723039119807563e-03  -1.2102812941609174e-02  -2.0683401763577157e-02  -2.2586648304270079e-02  -1.8316423535270160e-02  -1.9929902893180692e-02  -1.8431914662445259e-02  -2.1849730030071585e-02  -2.1903582844229334e-02  -9.2786375337515735e-03  -2.4333479117880644e-02  -1.8851278328641162e-02  -2.0221324246483426e-02  -1.6132101852061667e-02  -2.2152177097373302e-02  -1.6152729258397062e-02  -1.2004613310546534e-02  -2.2451838019115072e-02  -7.6847991147761339e-03  -1.5371173608798682e-02  -2.6629825965595860e-02  -1.6569222132879285e-02  -1.8707045489759183e-02  -1.9413447395952223e-02  -9.5252542973222522e-03  -2.2255442523710735e-02  -2.1148801496310293e-02  -1.8435814708047379e-02  -7.4442541514925581e-03  -2.0049966844318739e-02  -1.9462665100538599e-02  -8.0056266093190449e-03  -1.5684086732842523e-02  -1.8289147791477004e-02  -7.4671631955657682e-03  -1.5890518835094403e-02  -2.0732985173094513e-02  -2.1816130044533158e-02  -1.8389286064378722e-02  -1.5038534525454152e-02  -1.8882618746601049e-02  -2.2779423284872154e-02  -1.6449212056024124e-02  -3.1153325259925070e-02  -3.1389303443908438e-02  -3.1162232992739316e-02  -3.1447728530431741e-02  -2.1432953936127874e-02  -2.4366301057741482e-02  -2.0555449019296158e-02  -2.2670862412914956e-02  -1.9286258775630186e-02  -1.5173553101972119e-02  -2.3723902056874732e-02  -2.2322576353474455e-02  -1.8524574252769595e-02  -1.4170200027871945e-02  -1.5324113569047098e-02  -1.3768559168527627e-02  -2.1481720718165787e-02  -1.4103625073770399e-02  -1.9460523023698856e-02  -1.3627748883517513e-02  -7.6312118666717176e-03  -1.8558782295546559e-02  -1.5959800388270877e-02  -1.7679087469304126e-02  -1.8568128851123179e-02  -1.4833569085393152e-02  -1.4279594029866213e-02  -8.6954900901161994e-03  -2.5360967787006167e-02  -3.1505306464779441e-02  -3.1954245779892552e-02  -3.4186452401191704e-02  -3.7150697226013232e-02  -3.4216640792107095e-02  -3.7871521775041890e-02  -3.1819734450466486e-02  -3.3734856223331514e-02  -3.1788437629344586e-02  -3.3916742562295217e-02  -3.7399638342154179e-02  -3.7037874875869313e-02  -1.6867991861066207e-02  -1.5003555177582903e-02  -1.8118772964788907e-02  -1.5632056151983566e-02  -3.0736132363414166e-02  -3.5323725945023435e-02  -3.5661271052711517e-02  -3.0906051743880950e-02  -4.0638254208988867e-02  -4.4689157586307586e-02  -3.1672922529236987e-02  -3.1345563500627512e-02  -3.7345864383740622e-02  -4.5536448258909831e-02  -4.7926462190699848e-02  -4.8052195081421459e-02  -4.9576126123622895e-02  -5.0069743848974141e-02  -1.8690456198860530e-02  -1.8109460863909289e-02  -1.8662744187784550e-02  -1.8121531083045428e-02  -1.6648065644792882e-02  -1.6258507196414671e-02  -1.7236376896594335e-02  -4.9805116458134693e-02  -5.0567880069185764e-02  -4.7458895025637875e-02  -4.5752852132358399e-02  -1.8057873682725427e-02  -1.7397699159579883e-02  -1.6751601904017900e-02  -1.6376723520938163e-02  -1.7717513895136205e-02  -1.6753629485126268e-02  -1.9107476342632219e-02  -1.6463072649245129e-02  -4.5815094644482843e-02  -4.4682567750042798e-02  -1.8427559209566971e-02  -1.6569576599932450e-02  -1.8446232015385131e-02  -4.1287092438773716e-02  -4.4461994790290373e-02  -4.6894478525880849e-02  -4.8457351709849134e-02  -4.9727270555222504e-02  -4.9672002972146849e-02  -4.8644665801933398e-02  -4.9891382791891599e-02  -5.0246201977931094e-02  -4.8137721527381765e-02  -4.1304569544387985e-02  -4.4716406623693972e-02  -4.6983267189328742e-02  -4.8516934118469586e-02  -4.7026067361267090e-02  -4.9836405515324401e-02  -4.9755876198986311e-02  -5.0130743588058711e-02  -5.0434053155966205e-02  -4.8506409739834222e-02  -3.3386619249959552e-02  -4.0682754402937567e-02  -4.4752801625323635e-02  -4.5625497115458359e-02  -4.8083308306400931e-02  -4.8186859550999731e-02  -4.9741047754358746e-02  -5.0248034766043045e-02  -5.0035943933060704e-02  -5.0570740729286696e-02  -3.0161045875788998e-02  -3.0386142672315191e-02  -3.2406707025726914e-02  -3.2643686377115018e-02  -4.8713662149817712e-02  -4.9098142810589905e-02  -4.9533796594982055e-02  -4.8582920137584619e-02  -4.8814224522071688e-02  -4.9651870705561728e-02  -1.7488307483306872e-02  -4.8695431262921862e-02  -5.0691691227999262e-02  -4.8325695701477926e-02  -4.8457383761133496e-02  -5.0224521597750572e-02  -4.8544116864978060e-02  -3.3519057992985414e-02  -4.5749135833541989e-02  -4.5700947106131429e-02  -1.4459692179261692e-02  -1.3494890761442864e-02  -1.4475975764033205e-02  -4.4447958951101145e-02  -4.5352261370507942e-02  -4.2038129517826699e-02  -4.1319731185192853e-02  -4.7698971519016115e-02  -4.9699138844755721e-02  -4.7315907109496284e-02  -4.9253008460928747e-02  -4.6242009595373931e-02  -4.9210683684818034e-02  -4.6213115676185003e-02  -4.8839278152698326e-02  -4.5807715381425508e-02  -4.7837223279255235e-02  -4.6242065099513237e-02  -4.9123369461487119e-02  -4.6104063132017620e-02  -4.8553484441674871e-02  -4.5654372596263516e-02  -4.7851222677457762e-02  -4.5104030909626919e-02  -4.7272834613231625e-02  -4.4689907948360370e-02  -4.6898214128797397e-02  -4.4356827530902414e-02  -4.6727973542474148e-02  -4.4128542683288849e-02  -4.6797908923544504e-02  -4.5098677014232674e-02  -4.7174723321112728e-02  -4.4592161304876428e-02  -4.6760350688995179e-02  -4.4220214076923309e-02  -4.6580976806964311e-02  -4.3950645297758564e-02  -4.6674957266963656e-02  -4.4775591594835608e-02  -4.4248427843621672e-02  -4.7936476642234875e-02  -4.7833713520211846e-02  -4.4497485969456498e-02  -4.3706594358878630e-02  -4.4349335618792368e-02  -4.7143764915504552e-02  -4.4572735093523219e-02  -4.7605408583846306e-02  -4.4723159549503642e-02  -4.4158718325515940e-02  -4.6988654065292561e-02  -4.4305701994359292e-02  -4.7411291753816233e-02  -4.4440527122197634e-02  -4.7972370982235113e-02  -4.5055125730241001e-02  -4.3913765278453976e-02  -4.7098221443470673e-02  -4.7827967119908381e-02  -4.7166426006357870e-02  -4.7941070867474650e-02  -4.6006501247222900e-02  -3.9714370697541398e-02  -4.6209163621216985e-02  -3.9727278593002777e-02  -4.6221348943475432e-02  -3.8659409952700577e-02  -4.6341126628767403e-02  -4.5261925960619322e-02  -4.1085027636751266e-02  -3.8949542922419852e-02  -3.8509127618229874e-02  -4.5061687989366238e-02  -4.0180293892900211e-02  -4.7498628849418974e-02  -3.8368990733315129e-02  -4.7577334684994733e-02  -3.5867566915100818e-02  -3.6112852421357887e-02  -3.5161342970902454e-02  -4.0968306779413717e-02  -3.7539017799468957e-02  -4.1501023135053140e-02  -3.0147248388446495e-02  -4.9969256457514488e-02  -1.1589079249088171e-02  -4.3646870150376139e-02  -4.9933574217160881e-02  -3.9539610635919674e-02  -3.5057049298912749e-02  -3.9640339766119456e-02  -3.9502505421692438e-02  -4.4963842619144975e-02  -4.5014614472166301e-02  -4.3068222530287505e-02  -4.5878633430937732e-02  -4.4139897784661465e-02  -4.4885332150492188e-02  -4.3474028533485344e-02  -4.1677237721801728e-02  -4.0728253844605294e-02  -4.3617041359800150e-02  -4.2096689502731335e-02  -3.9862382996616430e-02  -4.0738660844941765e-02  -3.9092650946079943e-02  -3.9974246249949531e-02  -3.8808954676826976e-02  -3.9559495413688098e-02  -3.9012337089850760e-02  -3.9860533268180696e-02  -3.6855080312070645e-02  -4.1135330045522216e-02  -4.1280692002850880e-02  -4.0358825080213170e-02  -3.0491481533974893e-02  -3.9303457255376893e-02  -3.7306142094467837e-02  -3.8085906200348837e-02  -3.4726286851364717e-02  -1.0572622586912486e-02  -1.2306374959890036e-02  -1.1652483580738794e-02  -4.3415953524613846e-02  -3.9069006215273851e-02  -4.6411664618540835e-02  -4.1462971382123334e-02  -4.4204962442487152e-02  -3.1541796297378209e-02  -3.2475888958493196e-02  -3.3154448739699083e-02  -3.7607537535611246e-02  -4.0828245970430721e-02  -4.3704763724432015e-02  -4.2108260314653659e-02  -3.7606015236770714e-02  -4.0105849127317093e-02  -4.0773943252931211e-02  -4.0166471130230919e-02  -3.8316130897636892e-02  -3.9520422114145734e-02  -3.6132082063823574e-02  -3.8679662498619656e-02  -3.9168635045454966e-02  -3.9561126340712446e-02  -3.7660214803683555e-02  -3.9957433836114067e-02  -3.6454276058624051e-02  -3.9934235387823272e-02  -4.0512366339330225e-02  -4.1703015977850595e-02  -3.9741940047849207e-02  -4.2991969907627520e-02  -3.9080518852170974e-02  -4.3911302535683996e-02  -3.7658587333726762e-02  -4.2661157039552138e-02  -4.4248168736601992e-02  -4.5655741592970554e-02  -4.3855012221498867e-02  -4.9625285621024633e-02  -4.7823581030102702e-02  -3.5223338296335463e-02  -3.2625577735364057e-02  -4.4203897274553379e-02  -4.3809906810714054e-02  -4.7334896448547985e-02  -3.8500358341512012e-02  -4.8727935398494869e-02  -3.4554232405283040e-02  -4.0029382970326877e-02  -3.9733676147850977e-02  -4.4428055309043937e-02  -3.3565095422939978e-02  -4.0175495892487249e-02  -3.7877024324177923e-02  -3.8487044118347899e-02  -3.8142898510065804e-02  -3.9943817068188156e-02  -4.0470778424984040e-02  -3.6101916705629976e-02  -3.9057295096629280e-02  -3.81629313825