<?xml version="1.0"?>
<VTKFile type="UnstructuredGrid"  version="0.1"  >
<UnstructuredGrid>
<Piece  NumberOfPoints="1297" NumberOfCells="2496">
<Points>
<DataArray  type="Float64"  NumberOfComponents="3"  format="ascii">0 0 0  0 1 0  1 1 0  1 0 0  1.1 -0.1 0  -0.1 -0.1 0  1.1 1.1 0  -0.1 1.1 0  0.2963263641469271 0.6643012033267076 0  0.2970673288113886 0.3362147798851814 0  0.7045769236754127 0.3352319331859332 0  0.7045759932627044 0.6650127251066427 0  0.5004988456101218 0.5001715973477845 0  0 0.9499999999997918 0  0 0.8999999999995836 0  0 0.8499999999996529 0  0 0.7999999999999998 0  0 0.7500000000003466 0  0 0.7000000000006934 0  0 0.6500000000010401 0  0 0.6000000000013869 0  0 0.5500000000017335 0  0 0.5000000000020587 0  0 0.4500000000018723 0  0 0.4000000000016644 0  0 0.3500000000014564 0  0 0.3000000000012483 0  0 0.2500000000010403 0  0 0.2000000000008322 0  0 0.1500000000006241 0  0 0.100000000000416 0  0 0.05000000000020799 0  0.04999999999989965 0 0  0.09999999999981467 0 0  0.1499999999997036 0 0  0.1999999999995579 0 0  0.2499999999994121 0 0  0.2999999999992664 0 0  0.3499999999991206 0 0  0.3999999999989749 0 0  0.4499999999988292 0 0  0.4999999999986943 0 0  0.5499999999988151 0 0  0.5999999999989468 0 0  0.6499999999990784 0 0  0.69999999999921 0 0  0.7499999999993417 0 0  0.7999999999994734 0 0  0.8499999999996051 0 0  0.8999999999997368 0 0  0.9499999999998684 0 0  1 0.04999999999989965 0  1 0.09999999999981467 0  1 0.1499999999997036 0  1 0.1999999999995579 0  1 0.2499999999994121 0  1 0.2999999999992664 0  1 0.3499999999991206 0  1 0.3999999999989749 0  1 0.4499999999988292 0  1 0.4999999999986943 0  1 0.5499999999988151 0  1 0.5999999999989468 0  1 0.6499999999990784 0  1 0.69999999999921 0  1 0.7499999999993417 0  1 0.7999999999994734 0  1 0.8499999999996051 0  1 0.8999999999997368 0  1 0.9499999999998684 0  0.9499999999997918 1 0  0.8999999999995836 1 0  0.8499999999996529 1 0  0.7999999999999998 1 0  0.7500000000003466 1 0  0.7000000000006934 1 0  0.6500000000010401 1 0  0.6000000000013869 1 0  0.5500000000017335 1 0  0.5000000000020587 1 0  0.4500000000018723 1 0  0.4000000000016644 1 0  0.3500000000014564 1 0  0.3000000000012483 1 0  0.2500000000010403 1 0  0.2000000000008322 1 0  0.1500000000006241 1 0  0.100000000000416 1 0  0.05000000000020799 1 0  -0.1 1.05000000000004 0  -0.1 1.000000000000079 0  -0.1 0.9500000000001624 0  -0.1 0.9000000000003032 0  -0.1 0.850000000000444 0  -0.1 0.8000000000005848 0  -0.1 0.7500000000007256 0  -0.1 0.7000000000008665 0  -0.1 0.6500000000010508 0  -0.1 0.6000000000012352 0  -0.1 0.5500000000014196 0  -0.1 0.500000000001539 0  -0.1 0.4500000000014195 0  -0.1 0.4000000000013 0  -0.1 0.3500000000011588 0  -0.1 0.3000000000010178 0  -0.1 0.2500000000008986 0  -0.1 0.2000000000007579 0  -0.1 0.1500000000006174 0  -0.1 0.1000000000005272 0  -0.1 0.05000000000040083 0  -0.1 2.671196597248127e-13 0  -0.1 -0.0499999999998666 0  -0.0500000000000906 -0.1 0  -1.730560139634463e-13 -0.1 0  0.04999999999975802 -0.1 0  0.09999999999961506 -0.1 0  0.1499999999994613 -0.1 0  0.199999999999302 -0.1 0  0.2499999999991446 -0.1 0  0.2999999999990088 -0.1 0  0.3499999999988296 -0.1 0  0.3999999999986936 -0.1 0  0.4499999999985143 -0.1 0  0.4999999999984002 -0.1 0  0.5499999999985247 -0.1 0  0.5999999999986493 -0.1 0  0.6499999999987955 -0.1 0  0.6999999999989417 -0.1 0  0.7499999999990659 -0.1 0  0.7999999999992116 -0.1 0  0.8499999999993573 -0.1 0  0.8999999999994526 -0.1 0  0.949999999999584 -0.1 0  0.9999999999997226 -0.1 0  1.049999999999861 -0.1 0  1.1 -0.0500000000000906 0  1.1 -1.730560139634463e-13 0  1.1 0.04999999999975802 0  1.1 0.09999999999961506 0  1.1 0.1499999999994613 0  1.1 0.199999999999302 0  1.1 0.2499999999991446 0  1.1 0.2999999999990088 0  1.1 0.3499999999988296 0  1.1 0.3999999999986936 0  1.1 0.4499999999985143 0  1.1 0.4999999999984002 0  1.1 0.5499999999985247 0  1.1 0.5999999999986493 0  1.1 0.6499999999987955 0  1.1 0.6999999999989417 0  1.1 0.7499999999990659 0  1.1 0.7999999999992116 0  1.1 0.8499999999993573 0  1.1 0.8999999999994526 0  1.1 0.949999999999584 0  1.1 0.9999999999997226 0  1.1 1.049999999999861 0  1.05000000000004 1.1 0  1.000000000000079 1.1 0  0.9500000000001624 1.1 0  0.9000000000003032 1.1 0  0.850000000000444 1.1 0  0.8000000000005848 1.1 0  0.7500000000007256 1.1 0  0.7000000000008665 1.1 0  0.6500000000010508 1.1 0  0.6000000000012352 1.1 0  0.5500000000014196 1.1 0  0.500000000001539 1.1 0  0.4500000000014195 1.1 0  0.4000000000013 1.1 0  0.3500000000011588 1.1 0  0.3000000000010178 1.1 0  0.2500000000008986 1.1 0  0.2000000000007579 1.1 0  0.1500000000006174 1.1 0  0.1000000000005272 1.1 0  0.05000000000040083 1.1 0  2.671196597248127e-13 1.1 0  -0.0499999999998666 1.1 0  0.2867646032596229 0.6515173727440702 0  0.2773676965667716 0.6342497937276228 0  0.2695179007508657 0.6145177398664632 0  0.2633753608135247 0.5930311725595282 0  0.2588216356680834 0.570515034987699 0  0.2557014395449625 0.5473320369889667 0  0.2538982076704414 0.5237643421295 0  0.253348692094413 0.5000630586733621 0  0.2540228859111326 0.4763287853694895 0  0.2559487495965768 0.4527653222863554 0  0.2592070022461979 0.4296191976123342 0  0.2638943545595879 0.4071496474941283 0  0.270172476561449 0.3857390417136516 0  0.2781298225533759 0.3660483112202846 0  0.2875828483679455 0.3488849051876415 0  0.3086486262228384 0.3253680684548416 0  0.3243102017996117 0.3143054707467875 0  0.3426870931460846 0.3043706851899648 0  0.362887615714768 0.2958635587848717 0  0.3843552389824344 0.2887972108302292 0  0.4066927068931065 0.2831040211089618 0  0.4296193836887548 0.278715497609574 0  0.4529649909786057 0.275567241757228 0  0.4765734696935763 0.2736449454140409 0  0.500308123182076 0.2729397772004206 0  0.5240583596938759 0.2734493334330601 0  0.5476972643203172 0.2751768573825626 0  0.5711051802910349 0.2781435634194962 0  0.5940981579645763 0.2823768226053888 0  0.6165174089670048 0.287928899233302 0  0.6381101125165588 0.2948693971125324 0  0.6584715878812641 0.3033026659445483 0  0.6770372440178116 0.3132152957899121 0  0.6928250642787469 0.3242892173884425 0  0.7142351694115215 0.3481708789675602 0  0.7236605747964967 0.3653763265422486 0  0.7316059772520779 0.3852494390734734 0  0.7378411602435203 0.4068441459299859 0  0.7424722125802782 0.4294494125923264 0  0.7456584591035961 0.4526870374890039 0  0.7475254719760364 0.4763021294199766 0  0.7481449250231605 0.5000982930293747 0  0.74753781950762 0.5239028816037526 0  0.7456788472635925 0.5475525761758621 0  0.7425074997694169 0.5707950654693109 0  0.7378660663992044 0.593405153553879 0  0.7316475136310371 0.614959780173862 0  0.7237060479641216 0.6348389354919048 0  0.7142708221082692 0.6520487478449624 0  0.6928227695419495 0.6759795552847214 0  0.677010700977599 0.6870925657143223 0  0.6584779024885756 0.6970390870923447 0  0.6381304312752925 0.7054860058535786 0  0.6165491889682642 0.7124507908632862 0  0.5941245984696638 0.7180247706695885 0  0.5711026168813692 0.7222864799741603 0  0.5476824284712714 0.7252707104707979 0  0.5240262587553772 0.7270147352284849 0  0.5002581301831952 0.7275398841373083 0  0.4765031315057838 0.7268536465297587 0  0.4528849476821994 0.7249517696473575 0  0.4295150166504468 0.7218305248395007 0  0.4065452432207552 0.7174575863681866 0  0.384166781391074 0.7117978403536863 0  0.3626163653940813 0.704751152998084 0  0.3422963523864911 0.6962472758258509 0  0.3237968368073459 0.6862994737177993 0  0.3080036301938132 0.6752052107135011 0  0.374414406766396 0.3170006920348796 0  0.2808835878705774 0.4410202396571272 0  0.3742062377683091 0.6835137196572536 0  0.2806065173809944 0.5591538858935801 0  0.7190414538488962 0.5819843692405863 0  0.604630890534639 0.6907052737111592 0  0.6256578915564061 0.3155631455158704 0  0.7222077054629866 0.4401432961019703 0  0.7245935595982181 0.5114348414516336 0  0.5583011016538598 0.3013715311368761 0  0.4427585833708473 0.3039454875704461 0  0.4413083154379667 0.6968730475442957 0  0.5355843180323796 0.6999518212701186 0  0.2774794465408888 0.4881805160068743 0  0.2870896054349857 0.3957919122186137 0  0.488790212402644 0.3029681195883763 0  0.2920385693843915 0.602895815870801 0  0.7086452776374124 0.393457267260485 0  0.4885352206074844 0.7008600255608805 0  0.6478456657121526 0.6780059164465064 0  0.3331902418599622 0.3329950403917999 0  0.6683582025306763 0.3335643715545131 0  0.3333118057096412 0.6698257285192738 0  0.7062416994913276 0.6273849386963033 0  0.3001173370490135 0.3553455587314809 0  0.3013635316415649 0.6440676406886253 0  0.6860459816439866 0.6629269090696599 0  0.7019865466760973 0.354252288339043 0  0.3531477772583102 0.6770142658606347 0  0.3638557170697854 0.6576710530401852 0  0.3854253617606754 0.6621710653438526 0  0.373930553946741 0.6368762131257598 0  0.3968759108189255 0.6401883279239944 0  0.3839654941493003 0.6127801591644121 0  0.4118110421433184 0.6154330839326949 0  0.395897968971646 0.5831673118506661 0  0.3568537315630548 0.6091191937417192 0  0.4301118768749008 0.584576427443979 0  0.410168907379966 0.5481097654977489 0  0.3701017092218319 0.5528313140246478 0  0.3870936722285788 0.5143021842323032 0  0.3490227662628463 0.5162162556685327 0  0.362293406338685 0.4821037531692131 0  0.4022959814795521 0.4766847057141043 0  0.381151204903032 0.4444381174753745 0  0.4173887134875146 0.4384829721813405 0  0.3971363249911533 0.4079837743229796 0  0.4302123865330719 0.3950495291878297 0  0.3631134153185154 0.4106503641970182 0  0.4059207919646565 0.3745739264195078 0  0.4391264319956634 0.6188687627471083 0  0.4652238338335283 0.5933513140518283 0  0.4838125093678726 0.6205949965337096 0  0.5026400813538718 0.5952920688195229 0  0.5205421095416587 0.6208316193249691 0  0.5391653427653179 0.5954849414547111 0  0.5567136136503581 0.6207801878804401 0  0.5750836422136344 0.595719165904241 0  0.5930246434359095 0.6228875107384211 0  0.6103536106580139 0.5888327646545786 0  0.5943236172948213
[...]
<PointData  Scalars="state"> 
<DataArray  type="Float64"  Name="state"  format="ascii">0.0000000000000000e+00  0.0000000000000000e+00  0.0000000000000000e+00  0.0000000000000000e+00  0.0000000000000000e+00  0.0000000000000000e+00  0.0000000000000000e+00  0.0000000000000000e+00  -3.2296357616017443e-02  -3.2256290492701477e-02  -3.2459249388482603e-02  -3.2471626092045729e-02  -6.9372857215532100e-03  0.0000000000000000e+00  0.0000000000000000e+00  0.0000000000000000e+00  0.0000000000000000e+00  0.0000000000000000e+00  0.0000000000000000e+00  0.0000000000000000e+00  0.0000000000000000e+00  0.0000000000000000e+00  0.0000000000000000e+00  0.0000000000000000e+00  0.0000000000000000e+00  0.0000000000000000e+00  0.0000000000000000e+00  0.0000000000000000e+00  0.0000000000000000e+00  0.0000000000000000e+00  0.0000000000000000e+00  0.0000000000000000e+00  0.0000000000000000e+00  0.0000000000000000e+00  0.0000000000000000e+00  0.0000000000000000e+00  0.0000000000000000e+00  0.0000000000000000e+00  0.0000000000000000e+00  0.0000000000000000e+00  0.0000000000000000e+00  0.0000000000000000e+00  0.0000000000000000e+00  0.0000000000000000e+00  0.0000000000000000e+00  0.0000000000000000e+00  0.0000000000000000e+00  0.0000000000000000e+00  0.0000000000000000e+00  0.0000000000000000e+00  0.0000000000000000e+00  0.0000000000000000e+00  0.0000000000000000e+00  0.0000000000000000e+00  0.0000000000000000e+00  0.0000000000000000e+00  0.0000000000000000e+00  0.0000000000000000e+00  0.0000000000000000e+00  0.0000000000000000e+00  0.0000000000000000e+00  0.0000000000000000e+00  0.0000000000000000e+00  0.0000000000000000e+00  0.0000000000000000e+00  0.0000000000000000e+00  0.0000000000000000e+00  0.0000000000000000e+00  0.0000000000000000e+00  0.0000000000000000e+00  0.0000000000000000e+00  0.0000000000000000e+00  0.0000000000000000e+00  0.0000000000000000e+00  0.0000000000000000e+00  0.0000000000000000e+00  0.0000000000000000e+00  0.0000000000000000e+00  0.0000000000000000e+00  0.0000000000000000e+00  0.0000000000000000e+00  0.0000000000000000e+00  0.0000000000000000e+00  0.0000000000000000e+00  0.0000000000000000e+00  0.0000000000000000e+00  0.0000000000000000e+00  0.0000000000000000e+00  0.0000000000000000e+00  0.0000000000000000e+00  0.0000000000000000e+00  0.0000000000000000e+00  0.0000000000000000e+00  0.0000000000000000e+00  0.0000000000000000e+00  0.0000000000000000e+00  0.0000000000000000e+00  0.0000000000000000e+00  0.0000000000000000e+00  0.0000000000000000e+00  0.0000000000000000e+00  0.0000000000000000e+00  0.0000000000000000e+00  0.0000000000000000e+00  0.0000000000000000e+00  0.0000000000000000e+00  0.0000000000000000e+00  0.0000000000000000e+00  0.0000000000000000e+00  0.0000000000000000e+00  0.0000000000000000e+00  0.0000000000000000e+00  0.0000000000000000e+00  0.0000000000000000e+00  0.0000000000000000e+00  0.0000000000000000e+00  0.0000000000000000e+00  0.0000000000000000e+00  0.0000000000000000e+00  0.0000000000000000e+00  0.0000000000000000e+00  0.0000000000000000e+00  0.0000000000000000e+00  0.0000000000000000e+00  0.0000000000000000e+00  0.0000000000000000e+00  0.0000000000000000e+00  0.0000000000000000e+00  0.0000000000000000e+00  0.0000000000000000e+00  0.0000000000000000e+00  0.0000000000000000e+00  0.0000000000000000e+00  0.0000000000000000e+00  0.0000000000000000e+00  0.0000000000000000e+00  0.0000000000000000e+00  0.0000000000000000e+00  0.0000000000000000e+00  0.0000000000000000e+00  0.0000000000000000e+00  0.0000000000000000e+00  0.0000000000000000e+00  0.0000000000000000e+00  0.0000000000000000e+00  0.0000000000000000e+00  0.0000000000000000e+00  0.0000000000000000e+00  0.0000000000000000e+00  0.0000000000000000e+00  0.0000000000000000e+00  0.0000000000000000e+00  0.0000000000000000e+00  0.0000000000000000e+00  0.0000000000000000e+00  0.0000000000000000e+00  0.0000000000000000e+00  0.0000000000000000e+00  0.0000000000000000e+00  0.0000000000000000e+00  0.0000000000000000e+00  0.0000000000000000e+00  0.0000000000000000e+00  0.0000000000000000e+00  0.0000000000000000e+00  0.0000000000000000e+00  0.0000000000000000e+00  0.0000000000000000e+00  0.0000000000000000e+00  0.0000000000000000e+00  0.0000000000000000e+00  0.0000000000000000e+00  0.0000000000000000e+00  0.0000000000000000e+00  0.0000000000000000e+00  0.0000000000000000e+00  0.0000000000000000e+00  0.0000000000000000e+00  0.0000000000000000e+00  0.0000000000000000e+00  0.0000000000000000e+00  -3.1357508957615021e-02  -3.0557501406322560e-02  -2.9618960092454686e-02  -2.8690249363362310e-02  -2.7913070910983044e-02  -2.7332854034832908e-02  -2.6934037502508265e-02  -2.6912719533360538e-02  -2.6989323010137026e-02  -2.7381931008267291e-02  -2.7973963251830564e-02  -2.8716846188341506e-02  -2.9531102513736283e-02  -3.0428360177088640e-02  -3.1231583353526153e-02  -3.1714398538190129e-02  -3.1149676816472734e-02  -3.0491322570733830e-02  -2.9821025797827014e-02  -2.9198307282061600e-02  -2.8558274723964629e-02  -2.8016388633705220e-02  -2.7663530428388376e-02  -2.7385715829932031e-02  -2.7308654460669313e-02  -2.7387035024141995e-02  -2.7644152819511280e-02  -2.8066130570807681e-02  -2.8579173504372179e-02  -2.9297255877583018e-02  -3.0023551640458248e-02  -3.0687184510343624e-02  -3.1350888776189918e-02  -3.1904290716842983e-02  -3.1585429671252170e-02  -3.0687552980481671e-02  -2.9745996718368254e-02  -2.8792299284451730e-02  -2.8013924238289380e-02  -2.7421797826661803e-02  -2.7079021181125453e-02  -2.6937366993141608e-02  -2.7063808904032004e-02  -2.7485177144203479e-02  -2.8072931273749043e-02  -2.8812816072766409e-02  -2.9790503499929594e-02  -3.0740971055762914e-02  -3.1633038256850141e-02  -3.1886942973278730e-02  -3.1330101992450121e-02  -3.0723893561705521e-02  -3.0033704303470583e-02  -2.9293456154988573e-02  -2.8553310509633580e-02  -2.8040613578416900e-02  -2.7582209090272494e-02  -2.7306263889759510e-02  -2.7245784665306003e-02  -2.7353750369875519e-02  -2.7598371505211418e-02  -2.7911788037967532e-02  -2.8472966722866980e-02  -2.9137279156620951e-02  -2.9782908073005165e-02  -3.0494378880503669e-02  -3.1175949138733505e-02  -3.1737754938913246e-02  -2.4354935120197901e-02  -2.3020419715346217e-02  -2.4341566265410224e-02  -2.3011078879520482e-02  -2.4199406537746548e-02  -2.3763583806258336e-02  -2.4498878085076212e-02  -2.3299596656952040e-02  -2.2358610366021762e-02  -2.2572155124488891e-02  -2.2183214384344698e-02  -2.2198010533376906e-02  -2.1942694667971926e-02  -2.2241599731541235e-02  -2.5074646441336671e-02  -2.1189940400151461e-02  -2.4131639140784106e-02  -2.4490108951487347e-02  -2.1705524626596806e-02  -2.5538978188422729e-02  -2.6193706384543651e-02  -2.6101783074526787e-02  -2.6480251362998641e-02  -2.6261983552414249e-02  -2.7625171797952344e-02  -2.7095527282621074e-02  -2.7985687493712354e-02  -2.7866491751372343e-02  -2.5336214092880741e-02  -2.1951223856309321e-02  -2.0803870742503928e-02  -1.9086958803786719e-02  -1.7815822618858456e-02  -1.6252115458224834e-02  -1.4729299361530045e-02  -1.3281730040933949e-02  -1.8018636216610723e-02  -1.1453480880539720e-02  -1.0516773837321799e-02  -1.3543138440503640e-02  -1.1176061519038437e-02  -1.4445024863293498e-02  -1.3287155806254789e-02  -1.0301201042537077e-02  -1.2774602717028702e-02  -1.0730061209145806e-02  -1.3844370767398769e-02  -1.3022224582740610e-02  -1.6212334231283661e-02  -1.6129187679542294e-02  -1.3758546621488231e-02  -1.0889145135720844e-02  -1.2897632579763884e-02  -1.0691011371508760e-02  -1.3019406972339944e-02  -1.1202944900299187e-02  -1.3856787313694744e-02  -1.2485428223964019e-02  -1.5603116624910979e-02  -1.3976261833998242e-02  -1.1053577307820072e-02  -1.3553324205125377e-02  -1.1121813089953213e-02  -1.6497899305260424e-02  -1.6707674743290355e-02  -1.7411124566955077e-02  -1.6649707186270950e-02  -1.6542161015004792e-02  -1.7702393826356716e-02  -1.5404770295323132e-02  -1.2605817502774928e-02  -1.9827092638711217e-02  -1.8122261785995502e-02  -1.6166159511426876e-02  -1.6926627943571845e-02  -1.5680793732281702e-02  -1.2168130511115387e-02  -1.5982724165173930e-02  -1.3064044250572787e-02  -9.7692399930829569e-03  -1.1708310989350032e-02  -1.4533878377427105e-02  -1.4070773455591559e-02  -1.0478378265184805e-02  -1.3630945316447778e-02  -1.6466594980858409e-02  -1.6539952227629922e-02  -1.4669724213221432e-02  -1.8964850350290833e-02  -1.9488610797997914e-02  -2.1509575092271686e-02  -2.1579976496906180e-02  -9.0354889896711015e-03  -1.9510014980056157e-02  -1.9463851101134029e-02  -1.9843177436810983e-02  -1.7955670396244273e-02  -2.1785314724298503e-02  -2.2212879903672125e-02  -2.0593355356591670e-02  -1.6311952836717155e-02  -1.8852530285702707e-02  -2.0590548517816176e-02  -1.8016227126821577e-02  -1.6026601980870660e-02  -1.8525286777409559e-02  -1.9246655096111998e-02  -1.6289864051038584e-02  -1.8584956746507317e-02  -2.1029983436616825e-02  -2.1684489374402253e-02  -2.0399846514908858e-02  -1.9893315852932407e-02  -1.8940766118600950e-02  -2.0955237879229611e-02  -1.6787148394449086e-02  -8.4589244710803115e-03  -2.1079367348724530e-02  -8.4915238057121714e-03  -1.4242535852142005e-02  -1.7356453394846972e-02  -1.4768353865039665e-02  -1.7523388695947103e-02  -1.9686693081161385e-02  -2.0263480555683125e-02  -1.8704674749853260e-02  -1.7009733632446167e-02  -1.8685836878241935e-02  -1.8989468602288416e-02  -1.0090275485985192e-02  -2.3539198035371960e-02  -2.3902131359326603e-02  -1.7418791888788938e-02  -1.9912617983824994e-02  -1.9389274764572063e-02  -1.7610731134502001e-02  -1.8458636827685976e-02  -2.1045680080361135e-02  -1.9266727224706411e-02  -2.1106717714101886e-02  -2.1332170163709457e-02  -2.3042630709010935e-02  -2.4733862790927385e-02  -2.5201745437809210e-02  -1.9614475445965313e-02  -2.1736515623946580e-02  -2.1959124804196255e-02  -2.2967184605287454e-02  -2.5101975904049712e-02  -2.6100314341619628e-02  -2.2725561321107937e-02  -1.9201571078849705e-02  -1.6887609468901034e-02  -2.4436390926326983e-02  -2.3459001946247008e-02  -2.2249196146924298e-02  -2.5556227735522304e-02  -2.1994812065249322e-02  -2.1746515798390792e-02  -2.3681386770796013e-02  -2.6070529347708066e-02  -2.3124317641149337e-02  -2.1901969846700592e-02  -2.3837269652004351e-02  -2.0972340099520610e-02  -2.2997029630728381e-02  -2.0407079825536318e-02  -2.2469318786910872e-02  -2.4753904340614606e-02  -2.6631183715653040e-02  -2.5074873163529743e-02  -2.1488127166652167e-02  -1.7936690784322706e-02  -2.3450050901894653e-02  -2.3682732770588959e-02  -2.1848380649070707e-02  -2.7806112677987310e-02  -2.7816625308966194e-02  -2.7874601768404957e-02  -2.7956667602492536e-02  -2.2957775638321486e-02  -9.7113594689301405e-03  -7.9971175965733842e-03  -1.9522927369306366e-02  -2.3699686306454346e-02  -2.4115689567839584e-02  -2.3265789069749684e-02  -2.6412281720108042e-02  -2.2249265634976253e-02  -2.2395071608053981e-02  -1.8412146167964064e-02  -1.7584414121189756e-02  -2.1930061987729076e-02  -1.7047714745837741e-02  -8.7935556651537339e-03  -8.8920567837081303e-03  -1.2192998311030436e-02  -2.0503276496194756e-02  -2.2351054477959566e-02  -1.8767261968405509e-02  -2.0156371746246751e-02  -1.8827115654335924e-02  -2.2758527572295587e-02  -2.2651487307482242e-02  -9.2649912820556204e-03  -2.3827408829386151e-02  -1.9250146951084467e-02  -2.0375618367552629e-02  -1.6234712206695791e-02  -2.2152993834452964e-02  -1.6383827084837779e-02  -1.2131979283615731e-02  -2.3131987928773048e-02  -7.6632691464699303e-03  -1.5481253808886493e-02  -2.5662665211177386e-02  -1.6788540877095182e-02  -1.9117641400485628e-02  -1.9725250245558431e-02  -9.5375028624479271e-03  -2.3027018153568293e-02  -2.1213937821599166e-02  -1.8912075172820071e-02  -7.4061160762643385e-03  -2.0472890117254488e-02  -1.9433940323939202e-02  -7.9777091832150503e-03  -1.5903012006891114e-02  -1.8758668919418547e-02  -7.4566036423113196e-03  -1.6177560408951519e-02  -2.1091194282711636e-02  -2.1812884023854166e-02  -1.8408308683880343e-02  -1.5267297233882173e-02  -1.9261571517013160e-02  -2.3498549149058114e-02  -1.6653880197781093e-02  -2.9238405282236948e-02  -2.9356468503666727e-02  -2.9230804440332776e-02  -2.9419983102145855e-02  -2.1349321317230316e-02  -2.3840758819989552e-02  -2.0961641008073344e-02  -2.2709070150518870e-02  -1.9639574699625607e-02  -1.5263957346649209e-02  -2.3255962041571317e-02  -2.2065123237004380e-02  -1.8496041114745978e-02  -1.4309454454295956e-02  -1.5573296794881777e-02  -1.3931358875018715e-02  -2.1688026372800900e-02  -1.4264708105583394e-02  -1.9536114730744601e-02  -1.3785026437389675e-02  -7.5924110230179498e-03  -1.8872201551025352e-02  -1.6133099481750894e-02  -1.7846293718459319e-02  -1.9067760504730923e-02  -1.5209604953845235e-02  -1.4418278510692033e-02  -8.6985921382518021e-03  -2.4704069138860311e-02  -3.1703267036355468e-02  -3.2113309244873926e-02  -3.4179485508232452e-02  -3.6831979505093322e-02  -3.4166816152186044e-02  -3.7454507027203245e-02  -3.2031149873980355e-02  -3.3812825481773029e-02  -3.1985012606259036e-02  -3.3911210064629771e-02  -3.6982775991103993e-02  -3.6730524886134895e-02  -1.6963975537473391e-02  -1.5098939273510649e-02  -1.8232716995043762e-02  -1.5729927668385508e-02  -3.1746963357934775e-02  -3.5698881947495181e-02  -3.5882400882489021e-02  -3.1776972908371934e-02  -4.0688485746015121e-02  -4.5576881605577699e-02  -3.2443502225024859e-02  -3.2287597585157077e-02  -3.7558181977168668e-02  -4.6791547433844644e-02  -4.9262488445356800e-02  -4.9133606861190164e-02  -5.0845211406503228e-02  -5.1117311414575616e-02  -1.8008946184687520e-02  -1.7476661498205516e-02  -1.8003652958854904e-02  -1.7475642404270308e-02  -1.7165961226638660e-02  -1.6720023136285664e-02  -1.7758482610701443e-02  -5.0886608776823869e-02  -5.1375092886432293e-02  -4.8963707707761296e-02  -4.7247697796163175e-02  -1.8734222394981830e-02  -1.8088727071045967e-02  -1.7354792728387514e-02  -1.6911000769045167e-02  -1.8337615172111486e-02  -1.7256622345638805e-02  -1.9870375797455805e-02  -1.6207016713251126e-02  -4.7350876279013805e-02  -4.6224099463151418e-02  -1.8172677284380257e-02  -1.6324358489930170e-02  -1.8199587651951739e-02  -4.1174485230856220e-02  -4.5396383539448720e-02  -4.7840211584259010e-02  -4.9773132912292552e-02  -5.0837315989814495e-02  -5.0971984611337499e-02  -5.0154683426951882e-02  -5.0909447177706908e-02  -5.1043807565754197e-02  -4.9289329632457475e-02  -4.1123249096823022e-02  -4.5635779651189617e-02  -4.7879688354834533e-02  -4.9803897630693580e-02  -4.8444144039680823e-02  -5.0904277190858729e-02  -5.1042352890724514e-02  -5.1127808103353926e-02  -5.1184688594363079e-02  -4.9641779011956530e-02  -3.3960760489010110e-02  -4.0749297058213348e-02  -4.5642310348474449e-02  -4.6887611534905470e-02  -4.9435745760691714e-02  -4.9282780360600034e-02  -5.1019967188319186e-02  -5.1303905136772063e-02  -5.1133822768831924e-02  -5.1409365892493973e-02  -3.1077753107333225e-02  -3.1453275450571437e-02  -3.3191667373369621e-02  -3.3273507854711809e-02  -5.0139670691091473e-02  -4.9771243720552173e-02  -4.9910570066667596e-02  -4.9449224820127917e-02  -4.9509037969076741e-02  -5.0050023452470178e-02  -1.7885032426804649e-02  -4.9276915014789160e-02  -5.1181382381221989e-02  -4.9165443047263349e-02  -4.9010432677871953e-02  -5.0634209735661496e-02  -4.9804612454978206e-02  -3.3963503888280094e-02  -4.6101201007175512e-02  -4.6074977112112496e-02  -1.4712138699330435e-02  -1.3716509404890656e-02  -1.4726455274990809e-02  -4.5101093465558809e-02  -4.5960435710330913e-02  -4.3491142573771062e-02  -4.2757067012272547e-02  -4.7936111096032304e-02  -4.9728681171574404e-02  -4.7518106941482910e-02  -4.9230400083059560e-02  -4.6265214504118954e-02  -4.9173308888892445e-02  -4.5826738750484923e-02  -4.8316308984412963e-02  -4.4978086382396802e-02  -4.6781099112094590e-02  -4.6280785840032347e-02  -4.9055907405990654e-02  -4.5731167150241933e-02  -4.7987991978862041e-02  -4.4836137819012745e-02  -4.6807349601716737e-02  -4.3885046919333079e-02  -4.5825030040808110e-02  -4.3152364046015336e-02  -4.5163252757674806e-02  -4.2623290349166280e-02  -4.4861002744976730e-02  -4.2354843723233324e-02  -4.4970262575501831e-02  -4.3860282488252814e-02  -4.5702752540605664e-02  -4.3029893378850124e-02  -4.4998412684534229e-02  -4.2457349613780178e-02  -4.4680831410164074e-02  -4.2142765015579023e-02  -4.4804917485031417e-02  -4.5380349441943024e-02  -4.5058175273273375e-02  -4.8736904353266240e-02  -4.8587667811062121e-02  -4.5081126442056224e-02  -4.4493267862980572e-02  -4.2680094537948868e-02  -4.5515816825225659e-02  -4.3154091499959392e-02  -4.6308690892201076e-02  -4.3656317705636875e-02  -4.2448629705612154e-02  -4.5311710212171251e-02  -4.2838748012306783e-02  -4.6056332524783077e-02  -4.3301759762248336e-02  -4.9368551787964787e-02  -4.6208711864127269e-02  -4.5282862859828577e-02  -4.5631359647687990e-02  -4.6724295109871174e-02  -4.5748893081470357e-02  -4.6878938684163395e-02  -4.4158203502154353e-02  -3.9765491234801983e-02  -4.4395575701037769e-02  -3.9802098533962472e-02  -4.4657203824736050e-02  -3.7104854567558083e-02  -4.4798700405970844e-02  -4.5059328028739673e-02  -4.1141951456868879e-02  -3.9496340204214178e-02  -3.6927305640115406e-02  -4.4875911322491607e-02  -4.0209472017203991e-02  -4.6714859283628903e-02  -3.8893077110773271e-02  -4.6823083222967743e-02  -3.7138779605600344e-02  -3.7332974422366084e-02  -3.6379690104250080e-02  -4.2310887256330948e-02  -3.8206803892753487e-02  -4.2440522701353137e-02  -3.0552564242017962e-02  -5.0144894476460720e-02  -1.1677874934122959e-02  -4.5011160001446164e-02  -5.0149671672010225e-02  -3.8595858783399516e-02  -3.6184599296460458e-02  -4.0811794345026783e-02  -3.8576286199525259e-02  -4.5449078437897701e-02  -4.5439651986709635e-02  -4.4136466267159752e-02  -4.7382901792807977e-02  -4.5561758106178706e-02  -4.6440536674945174e-02  -4.4948239464943196e-02  -4.3142767790278660e-02  -4.2099393004145343e-02  -4.5121030368341690e-02  -4.3405310593947206e-02  -4.1095791874761783e-02  -4.1869498850791650e-02  -4.0189500924197152e-02  -4.0979763407275861e-02  -3.9817700602013943e-02  -4.0498225063269534e-02  -4.0078904128671142e-02  -4.0728477964003758e-02  -3.7511155533555177e-02  -4.2054132419895369e-02  -4.2484602985388677e-02  -4.1424575755140455e-02  -3.0897638737426861e-02  -4.0292650198786625e-02  -3.7647063756485480e-02  -3.8454913304207410e-02  -3.5707988950659769e-02  -1.0651180094856780e-02  -1.2416210938462782e-02  -1.1753615087400525e-02  -4.4459183049858748e-02  -3.8822282199140155e-02  -4.8029041927507163e-02  -4.2944981103040507e-02  -4.5910003493682794e-02  -3.2281805529026382e-02  -3.3062106235096325e-02  -3.3875072440417986e-02  -3.9066622830002666e-02  -4.2447042682352998e-02  -4.5406046683339245e-02  -4.3709436682591217e-02  -3.9057379102841308e-02  -4.1539589349556073e-02  -4.2164401119240864e-02  -4.1448489830737373e-02  -3.9607800072476967e-02  -4.0734807508445457e-02  -3.7301847662767187e-02  -3.9859190195267236e-02  -4.0293376587957723e-02  -4.0728364838100703e-02  -3.8860892979011456e-02  -4.1238025050850183e-02  -3.7709872958979568e-02  -4.1354549009082031e-02  -4.1863915257309141e-02  -4.3236747878286380e-02  -4.1270185326047162e-02  -4.4679841637167907e-02  -4.0626927272708141e-02  -4.5623215398018620e-02  -3.9099998180950044e-02  -4.4190182049184311e-02  -4.3216935266113574e-02  -4.4923044203393013e-02  -4.2550765885690497e-02  -4.9311919027874039e-02  -4.7674926337136984e-02  -3.6395106736001874e-02  -3.3826235395833959e-02  -4.3217982163834642e-02  -4.2557241638043530e-02  -4.7539670738613808e-02  -3.9450266152018333e-02  -4.8054086011678973e-02  -3.5570608071519599e-02  -3.9233508484581375e-02  -4.0787187791539004e-02  -4.6136126699114273e-02  -3.4762121485329936e-02  -4.1441244561594072e-02  -3.8768414490292412e-02  -3.7370351689891959e-02  -3.7343708566335697e-02  -3.9195533354460202e-02  -4.1582407469431940e-02  -3.7069291376593372e-02  -4.0052913718617279e-02  -3.90798459553