<?xml version="1.0"?>
<VTKFile type="UnstructuredGrid"  version="0.1"  >
<UnstructuredGrid>
<Piece  NumberOfPoints="1297" NumberOfCells="2496">
<Points>
<DataArray  type="Float64"  NumberOfComponents="3"  format="ascii">0 0 0  0 1 0  1 1 0  1 0 0  1.1 -0.1 0  -0.1 -0.1 0  1.1 1.1 0  -0.1 1.1 0  0.2920373774738944 0.6669195987544959 0  0.2927908286074623 0.3335842040110963 0  0.7087496473517944 0.3326489172084797 0  0.7087408879335763 0.667575160950247 0  0.5004612740825133 0.5001662932227978 0  0 0.9499999999997918 0  0 0.8999999999995836 0  0 0.8499999999996529 0  0 0.7999999999999998 0  0 0.7500000000003466 0  0 0.7000000000006934 0  0 0.6500000000010401 0  0 0.6000000000013869 0  0 0.5500000000017335 0  0 0.5000000000020587 0  0 0.4500000000018723 0  0 0.4000000000016644 0  0 0.3500000000014564 0  0 0.3000000000012483 0  0 0.2500000000010403 0  0 0.2000000000008322 0  0 0.1500000000006241 0  0 0.100000000000416 0  0 0.05000000000020799 0  0.04999999999989965 0 0  0.09999999999981467 0 0  0.1499999999997036 0 0  0.1999999999995579 0 0  0.2499999999994121 0 0  0.2999999999992664 0 0  0.3499999999991206 0 0  0.3999999999989749 0 0  0.4499999999988292 0 0  0.4999999999986943 0 0  0.5499999999988151 0 0  0.5999999999989468 0 0  0.6499999999990784 0 0  0.69999999999921 0 0  0.7499999999993417 0 0  0.7999999999994734 0 0  0.8499999999996051 0 0  0.8999999999997368 0 0  0.9499999999998684 0 0  1 0.04999999999989965 0  1 0.09999999999981467 0  1 0.1499999999997036 0  1 0.1999999999995579 0  1 0.2499999999994121 0  1 0.2999999999992664 0  1 0.3499999999991206 0  1 0.3999999999989749 0  1 0.4499999999988292 0  1 0.4999999999986943 0  1 0.5499999999988151 0  1 0.5999999999989468 0  1 0.6499999999990784 0  1 0.69999999999921 0  1 0.7499999999993417 0  1 0.7999999999994734 0  1 0.8499999999996051 0  1 0.8999999999997368 0  1 0.9499999999998684 0  0.9499999999997918 1 0  0.8999999999995836 1 0  0.8499999999996529 1 0  0.7999999999999998 1 0  0.7500000000003466 1 0  0.7000000000006934 1 0  0.6500000000010401 1 0  0.6000000000013869 1 0  0.5500000000017335 1 0  0.5000000000020587 1 0  0.4500000000018723 1 0  0.4000000000016644 1 0  0.3500000000014564 1 0  0.3000000000012483 1 0  0.2500000000010403 1 0  0.2000000000008322 1 0  0.1500000000006241 1 0  0.100000000000416 1 0  0.05000000000020799 1 0  -0.1 1.05000000000004 0  -0.1 1.000000000000079 0  -0.1 0.9500000000001624 0  -0.1 0.9000000000003032 0  -0.1 0.850000000000444 0  -0.1 0.8000000000005848 0  -0.1 0.7500000000007256 0  -0.1 0.7000000000008665 0  -0.1 0.6500000000010508 0  -0.1 0.6000000000012352 0  -0.1 0.5500000000014196 0  -0.1 0.500000000001539 0  -0.1 0.4500000000014195 0  -0.1 0.4000000000013 0  -0.1 0.3500000000011588 0  -0.1 0.3000000000010178 0  -0.1 0.2500000000008986 0  -0.1 0.2000000000007579 0  -0.1 0.1500000000006174 0  -0.1 0.1000000000005272 0  -0.1 0.05000000000040083 0  -0.1 2.671196597248127e-13 0  -0.1 -0.0499999999998666 0  -0.0500000000000906 -0.1 0  -1.730560139634463e-13 -0.1 0  0.04999999999975802 -0.1 0  0.09999999999961506 -0.1 0  0.1499999999994613 -0.1 0  0.199999999999302 -0.1 0  0.2499999999991446 -0.1 0  0.2999999999990088 -0.1 0  0.3499999999988296 -0.1 0  0.3999999999986936 -0.1 0  0.4499999999985143 -0.1 0  0.4999999999984002 -0.1 0  0.5499999999985247 -0.1 0  0.5999999999986493 -0.1 0  0.6499999999987955 -0.1 0  0.6999999999989417 -0.1 0  0.7499999999990659 -0.1 0  0.7999999999992116 -0.1 0  0.8499999999993573 -0.1 0  0.8999999999994526 -0.1 0  0.949999999999584 -0.1 0  0.9999999999997226 -0.1 0  1.049999999999861 -0.1 0  1.1 -0.0500000000000906 0  1.1 -1.730560139634463e-13 0  1.1 0.04999999999975802 0  1.1 0.09999999999961506 0  1.1 0.1499999999994613 0  1.1 0.199999999999302 0  1.1 0.2499999999991446 0  1.1 0.2999999999990088 0  1.1 0.3499999999988296 0  1.1 0.3999999999986936 0  1.1 0.4499999999985143 0  1.1 0.4999999999984002 0  1.1 0.5499999999985247 0  1.1 0.5999999999986493 0  1.1 0.6499999999987955 0  1.1 0.6999999999989417 0  1.1 0.7499999999990659 0  1.1 0.7999999999992116 0  1.1 0.8499999999993573 0  1.1 0.8999999999994526 0  1.1 0.949999999999584 0  1.1 0.9999999999997226 0  1.1 1.049999999999861 0  1.05000000000004 1.1 0  1.000000000000079 1.1 0  0.9500000000001624 1.1 0  0.9000000000003032 1.1 0  0.850000000000444 1.1 0  0.8000000000005848 1.1 0  0.7500000000007256 1.1 0  0.7000000000008665 1.1 0  0.6500000000010508 1.1 0  0.6000000000012352 1.1 0  0.5500000000014196 1.1 0  0.500000000001539 1.1 0  0.4500000000014195 1.1 0  0.4000000000013 1.1 0  0.3500000000011588 1.1 0  0.3000000000010178 1.1 0  0.2500000000008986 1.1 0  0.2000000000007579 1.1 0  0.1500000000006174 1.1 0  0.1000000000005272 1.1 0  0.05000000000040083 1.1 0  2.671196597248127e-13 1.1 0  -0.0499999999998666 1.1 0  0.2826400082013969 0.6537758086586356 0  0.2739369721737216 0.6359063561045482 0  0.2669789246810553 0.6156150337289875 0  0.2617321853192079 0.5937146605560495 0  0.2579278120886531 0.5709158564197255 0  0.2553582119235807 0.5475516906760813 0  0.2538890549404555 0.5238658415511812 0  0.2534491798850316 0.5000692543437858 0  0.2540107676059644 0.4762459779100481 0  0.2556014447497701 0.4525626343605769 0  0.2583085943551588 0.4292293077429424 0  0.2622487774913597 0.4064694049588891 0  0.267635699007151 0.3846338815238219 0  0.2746983178196262 0.3643761883685825 0  0.2834688415345032 0.346615114896324 0  0.304955226786706 0.3230910633547093 0  0.3214712987729276 0.3128940078454657 0  0.3406719180024081 0.3040941079464645 0  0.361534672473384 0.2967583595366992 0  0.3834885452524467 0.2907654862384516 0  0.4061641066589435 0.2859804038422957 0  0.429315823071615 0.2823082945531844 0  0.4528065938909032 0.2796777091439354 0  0.4765051289617552 0.2780697301905649 0  0.5003054638289299 0.2774747997450714 0  0.5241173721820699 0.2778908978160118 0  0.5478398305466594 0.2793210940211526 0  0.5713818561719999 0.2817880057443151 0  0.5945881552229519 0.285318888046323 0  0.617330412027887 0.289976145388344 0  0.6393906086131215 0.295852460655835 0  0.6603948250099748 0.3031148394628459 0  0.6797701143063222 0.3118801857052329 0  0.6964082989742086 0.3220799707378603 0  0.7182131330114562 0.3459623259998876 0  0.7269647040134438 0.3637616285072749 0  0.7340144886409669 0.3841857304248831 0  0.7393641654115269 0.4061846134035603 0  0.7432570152947613 0.429065110957919 0  0.7459022240158791 0.4524824885511317 0  0.7474414234365715 0.4762153058697688 0  0.747951225325341 0.5000985520861164 0  0.7474539553936089 0.5239892825890479 0  0.7459235358716531 0.5477497769144072 0  0.7432938009248163 0.5711727093545906 0  0.7393915187640371 0.5940562651762861 0  0.7340525456990157 0.6160180034903651 0  0.7270056964233448 0.6364445940778565 0  0.7182424983874157 0.6542439923229224 0  0.6964046579796791 0.6781731304904298 0  0.6797485829988981 0.6884129807931392 0  0.6604047557600734 0.6972197289219162 0  0.6394099993166902 0.704496857826443 0  0.6173561075612154 0.7103986711290292 0  0.5946050168914956 0.7150774072030375 0  0.571369650024648 0.7186329615713937 0  0.5478136679316626 0.7211134606274047 0  0.5240721732639417 0.7225574472263635 0  0.5002422674929944 0.7229855684274707 0  0.4764226156830338 0.7224050933279759 0  0.4527126258663227 0.7208123039293181 0  0.4291999560600078 0.7182030279298518 0  0.4060098531500019 0.7145400849716599 0  0.3832960268706185 0.7097798434411536 0  0.3612666398420541 0.7038045840098548 0  0.3402914776045753 0.6964776204372972 0  0.3209691853587042 0.687672983598615 0  0.3043113635265104 0.6774605536298974 0  0.3730986364031103 0.3179329321747956 0  0.279946770863566 0.4407087080361562 0  0.372886758212362 0.6825438234653879 0  0.2796767981439746 0.5594708738116896 0  0.7203605576158091 0.5824820938106046 0  0.605468482155445 0.6888660054916953 0  0.6268842465960867 0.3166059608265119 0  0.7230299897061104 0.4398343828052472 0  0.72486894385821 0.5114776950274572 0  0.5586291439994311 0.3044353808511797 0  0.442389863630121 0.3069096177370865 0  0.4409202561265917 0.6938962097726327 0  0.5357515131639816 0.6965817090885112 0  0.277099227581479 0.4881350803379895 0  0.2849798940242216 0.3949385595940457 0  0.4887156195310734 0.3063698240972931 0  0.2900009955831555 0.6036866784345051 0  0.7106793578698934 0.3926317639960604 0  0.4884529406581603 0.6973218747747132 0  0.6496120935096988 0.6778952723562334 0  0.330679852533198 0.3321182954198831 0  0.6707789650461861 0.3327383939670637 0  0.3308334433887153 0.6706419130651381 0  0.7089372947996352 0.6286053737545262 0  0.2967511086308449 0.3536273739105915 0  0.2980804798448139 0.6457034991023475 0  0.6891301349998894 0.6644801529265428 0  0.7052684113178768 0.3525584303325448 0  0.3513004446781415 0.6769445331791771 0  0.362250080579856 0.6573645915880466 0  0.3842246481125591 0.6612061142591892 0  0.3725540145798473 0.6364600620797458 0  0.3958354888849039 0.6392650447722525 0  0.3828308495155757 0.6123251363451591 0  0.410981683897628 0.6145712136524373 0  0.3950010589885738 0.5827584965021191 0  0.3553963184271083 0.6091154420159085 0  0.4295047438680682 0.5838766198004073 0  0.4094778150680098 0.5478248237309538 0  0.3691590624593559 0.5527332146117737 0  0.3863372565799834 0.5142475797358257 0  0.3481626138790013 0.5162168930815516 0  0.3614540630841893 0.4821209283756508 0  0.4016025436239817 0.4767956547033613 0  0.3802595557515379 0.4446000758206345 0  0.416724099862652 0.4388844644047729 0  0.3962228259024589 0.408453552916719 0  0.429583899248624 0.3959670928268719 0  0.361893190302723 0.4107273420936033 0  0.4050166522590293 0.3754583739938254 0  0.438566351870844 0.6176673837080382 0  0.4649028365795405 0.5923558099720243 0  0.4836427828048788 0.6191078562377137 0  0.5026221389332791 0.5941994340602893 0  0.5206725079071928 0.6193432020859002 0  0.5394427765764621 0.5944680661768319 0  0.5571550741193708 0.6194975450136663 0  0.575664916378049 0.5949189749909626 0  0.5938306216466911 0.6219782896110756 0  0.6112303636312447 0.5884194831153869 0  0.5949701321069132
[...]
<PointData  Scalars="state"> 
<DataArray  type="Float64"  Name="state"  format="ascii">0.0000000000000000e+00  0.0000000000000000e+00  0.0000000000000000e+00  0.0000000000000000e+00  0.0000000000000000e+00  0.0000000000000000e+00  0.0000000000000000e+00  0.0000000000000000e+00  -3.2881902334284681e-02  -3.2841306167552202e-02  -3.3064040716033707e-02  -3.3071295481876165e-02  -6.9589853091149368e-03  0.0000000000000000e+00  0.0000000000000000e+00  0.0000000000000000e+00  0.0000000000000000e+00  0.0000000000000000e+00  0.0000000000000000e+00  0.0000000000000000e+00  0.0000000000000000e+00  0.0000000000000000e+00  0.0000000000000000e+00  0.0000000000000000e+00  0.0000000000000000e+00  0.0000000000000000e+00  0.0000000000000000e+00  0.0000000000000000e+00  0.0000000000000000e+00  0.0000000000000000e+00  0.0000000000000000e+00  0.0000000000000000e+00  0.0000000000000000e+00  0.0000000000000000e+00  0.0000000000000000e+00  0.0000000000000000e+00  0.0000000000000000e+00  0.0000000000000000e+00  0.0000000000000000e+00  0.0000000000000000e+00  0.0000000000000000e+00  0.0000000000000000e+00  0.0000000000000000e+00  0.0000000000000000e+00  0.0000000000000000e+00  0.0000000000000000e+00  0.0000000000000000e+00  0.0000000000000000e+00  0.0000000000000000e+00  0.0000000000000000e+00  0.0000000000000000e+00  0.0000000000000000e+00  0.0000000000000000e+00  0.0000000000000000e+00  0.0000000000000000e+00  0.0000000000000000e+00  0.0000000000000000e+00  0.0000000000000000e+00  0.0000000000000000e+00  0.0000000000000000e+00  0.0000000000000000e+00  0.0000000000000000e+00  0.0000000000000000e+00  0.0000000000000000e+00  0.0000000000000000e+00  0.0000000000000000e+00  0.0000000000000000e+00  0.0000000000000000e+00  0.0000000000000000e+00  0.0000000000000000e+00  0.0000000000000000e+00  0.0000000000000000e+00  0.0000000000000000e+00  0.0000000000000000e+00  0.0000000000000000e+00  0.0000000000000000e+00  0.0000000000000000e+00  0.0000000000000000e+00  0.0000000000000000e+00  0.0000000000000000e+00  0.0000000000000000e+00  0.0000000000000000e+00  0.0000000000000000e+00  0.0000000000000000e+00  0.0000000000000000e+00  0.0000000000000000e+00  0.0000000000000000e+00  0.0000000000000000e+00  0.0000000000000000e+00  0.0000000000000000e+00  0.0000000000000000e+00  0.0000000000000000e+00  0.0000000000000000e+00  0.0000000000000000e+00  0.0000000000000000e+00  0.0000000000000000e+00  0.0000000000000000e+00  0.0000000000000000e+00  0.0000000000000000e+00  0.0000000000000000e+00  0.0000000000000000e+00  0.0000000000000000e+00  0.0000000000000000e+00  0.0000000000000000e+00  0.0000000000000000e+00  0.0000000000000000e+00  0.0000000000000000e+00  0.0000000000000000e+00  0.0000000000000000e+00  0.0000000000000000e+00  0.0000000000000000e+00  0.0000000000000000e+00  0.0000000000000000e+00  0.0000000000000000e+00  0.0000000000000000e+00  0.0000000000000000e+00  0.0000000000000000e+00  0.0000000000000000e+00  0.0000000000000000e+00  0.0000000000000000e+00  0.0000000000000000e+00  0.0000000000000000e+00  0.0000000000000000e+00  0.0000000000000000e+00  0.0000000000000000e+00  0.0000000000000000e+00  0.0000000000000000e+00  0.0000000000000000e+00  0.0000000000000000e+00  0.0000000000000000e+00  0.0000000000000000e+00  0.0000000000000000e+00  0.0000000000000000e+00  0.0000000000000000e+00  0.0000000000000000e+00  0.0000000000000000e+00  0.0000000000000000e+00  0.0000000000000000e+00  0.0000000000000000e+00  0.0000000000000000e+00  0.0000000000000000e+00  0.0000000000000000e+00  0.0000000000000000e+00  0.0000000000000000e+00  0.0000000000000000e+00  0.0000000000000000e+00  0.0000000000000000e+00  0.0000000000000000e+00  0.0000000000000000e+00  0.0000000000000000e+00  0.0000000000000000e+00  0.0000000000000000e+00  0.0000000000000000e+00  0.0000000000000000e+00  0.0000000000000000e+00  0.0000000000000000e+00  0.0000000000000000e+00  0.0000000000000000e+00  0.0000000000000000e+00  0.0000000000000000e+00  0.0000000000000000e+00  0.0000000000000000e+00  0.0000000000000000e+00  0.0000000000000000e+00  0.0000000000000000e+00  0.0000000000000000e+00  0.0000000000000000e+00  0.0000000000000000e+00  0.0000000000000000e+00  0.0000000000000000e+00  0.0000000000000000e+00  0.0000000000000000e+00  0.0000000000000000e+00  0.0000000000000000e+00  0.0000000000000000e+00  0.0000000000000000e+00  0.0000000000000000e+00  0.0000000000000000e+00  0.0000000000000000e+00  0.0000000000000000e+00  0.0000000000000000e+00  -3.1836855554195569e-02  -3.0840909147163982e-02  -2.9716392684062218e-02  -2.8641447829658263e-02  -2.7756159864732465e-02  -2.7105335878237023e-02  -2.6668205410078610e-02  -2.6631949590200144e-02  -2.6721628363042448e-02  -2.7153490689785995e-02  -2.7816264810168939e-02  -2.8666451726984885e-02  -2.9632034825262225e-02  -3.0717326354043357e-02  -3.1712627066324592e-02  -3.2224054312300403e-02  -3.1503443560208053e-02  -3.0674909347348719e-02  -2.9859882870691707e-02  -2.9125835506075049e-02  -2.8407120482463681e-02  -2.7814717274770490e-02  -2.7428791404353177e-02  -2.7133008214101025e-02  -2.7050312369967612e-02  -2.7133594283106414e-02  -2.7409379103932489e-02  -2.7868060858947281e-02  -2.8432246362753415e-02  -2.9232733242052479e-02  -3.0071065004741698e-02  -3.0880069525518326e-02  -3.1715835544293892e-02  -3.2429265766468388e-02  -3.2074472181277403e-02  -3.0987791429733916e-02  -2.9860180179045768e-02  -2.8760747764079497e-02  -2.7876756887997196e-02  -2.7213740463946302e-02  -2.6831288159602777e-02  -2.6676862433822172e-02  -2.6814955452587264e-02  -2.7276360560664330e-02  -2.7934086265314812e-02  -2.8781158915912722e-02  -2.9904312569121662e-02  -3.1039260488698778e-02  -3.2118563623070473e-02  -3.2410365177088091e-02  -3.1698404156041908e-02  -3.0922742582603416e-02  -3.0086322742577758e-02  -2.9232171061286547e-02  -2.8409978745377054e-02  -2.7846219440770061e-02  -2.7352858193772051e-02  -2.7058925599054904e-02  -2.6991369378055113e-02  -2.7103875133250858e-02  -2.7366603746592194e-02  -2.7712159278530595e-02  -2.8325839691468260e-02  -2.9068967495664618e-02  -2.9821933243347361e-02  -3.0674871504888287e-02  -3.1527916713931979e-02  -3.2248615827339282e-02  -2.4391761941985200e-02  -2.2913026340143507e-02  -2.4380755702826613e-02  -2.2902673029469300e-02  -2.4171203473829461e-02  -2.3742088560860356e-02  -2.4542612711555674e-02  -2.3206680256326471e-02  -2.2199400734996409e-02  -2.2455080211380398e-02  -2.2069724341270539e-02  -2.2089780162972753e-02  -2.1814078286539296e-02  -2.2064048549195532e-02  -2.5132499316030600e-02  -2.1057514650778500e-02  -2.4185735620809726e-02  -2.4577844217969318e-02  -2.1565633385226702e-02  -2.5678115012174551e-02  -2.6418135516188407e-02  -2.6336173715155110e-02  -2.6702225299394138e-02  -2.6463581327134854e-02  -2.7936839017479058e-02  -2.7390386225857911e-02  -2.8330195151493844e-02  -2.8198016988754033e-02  -2.5460945261407526e-02  -2.2024148532487926e-02  -2.0827879535836195e-02  -1.9129865217502675e-02  -1.7827094643674015e-02  -1.6268066307224570e-02  -1.4733034887394645e-02  -1.3282224635054400e-02  -1.8055974694089778e-02  -1.1458721484514192e-02  -1.0514358545071560e-02  -1.3522650126769146e-02  -1.1155490866665077e-02  -1.4392814508330860e-02  -1.3246370166006485e-02  -1.0290533695393105e-02  -1.2759483001776182e-02  -1.0730550521560848e-02  -1.3846018194736570e-02  -1.3023359812736370e-02  -1.6218466528146399e-02  -1.6132008087121015e-02  -1.3755936867191253e-02  -1.0898710699453137e-02  -1.2892369894361459e-02  -1.0703671864578263e-02  -1.3015992456073943e-02  -1.1215644493705330e-02  -1.3857376270983778e-02  -1.2497740589352626e-02  -1.5616987217212736e-02  -1.3987709617928612e-02  -1.1059819536660053e-02  -1.3546097724373964e-02  -1.1115308621781920e-02  -1.6513819483616847e-02  -1.6685200080715275e-02  -1.7401479495733192e-02  -1.6605466757907850e-02  -1.6492609075105944e-02  -1.7614785290405627e-02  -1.5383996287428925e-02  -1.2603463065782120e-02  -1.9810634964118733e-02  -1.8091302235891844e-02  -1.6118875979703590e-02  -1.6882259213999901e-02  -1.5641100508138595e-02  -1.2166267564168371e-02  -1.5938131696779545e-02  -1.3059253681594120e-02  -9.7837719064247132e-03  -1.1720087077556098e-02  -1.4534249335490504e-02  -1.4082632293817465e-02  -1.0487298614081124e-02  -1.3636972661134962e-02  -1.6493433621923573e-02  -1.6558973736774358e-02  -1.4661342723320205e-02  -1.9024721063272566e-02  -1.9530275780855477e-02  -2.1610171681712646e-02  -2.1684506151226798e-02  -9.0446313004532933e-03  -1.9523051517275375e-02  -1.9524029634547298e-02  -1.9801740665351768e-02  -1.7892164397445495e-02  -2.1858551579913944e-02  -2.2334030152915959e-02  -2.0678251671574228e-02  -1.6270949387149070e-02  -1.8768844894551016e-02  -2.0503409060180031e-02  -1.7953514863089843e-02  -1.5988028639093682e-02  -1.8522136265833038e-02  -1.9289682148846046e-02  -1.6221249859877780e-02  -1.8510186366105581e-02  -2.1069299185835597e-02  -2.1780240829148922e-02  -2.0472656094008411e-02  -1.9808026895108178e-02  -1.8908616683574381e-02  -2.0818310587611008e-02  -1.6774743758860334e-02  -8.4762609371340017e-03  -2.1058596889640329e-02  -8.4991128988438185e-03  -1.4208303428586857e-02  -1.7281593920200209e-02  -1.4727434882148395e-02  -1.7455230633886418e-02  -1.9576256697061648e-02  -2.0164359669871523e-02  -1.8661910524610029e-02  -1.7029667152219558e-02  -1.8698691045998944e-02  -1.8878875356896561e-02  -1.0090789270192014e-02  -2.3699838789088806e-02  -2.4054775807969345e-02  -1.7458176777932377e-02  -1.9966649438651247e-02  -1.9443491624447876e-02  -1.7628498907818618e-02  -1.8436358334154055e-02  -2.1077107433121484e-02  -1.9288160833248989e-02  -2.1190510984513328e-02  -2.1333146961916780e-02  -2.3174014025123688e-02  -2.4927907517909017e-02  -2.5324624141448020e-02  -1.9486373324697805e-02  -2.1602371218676125e-02  -2.1827520921299720e-02  -2.3099554712961021e-02  -2.5312791573563569e-02  -2.6283041996495556e-02  -2.2650596907512560e-02  -1.9156044689205960e-02  -1.6876614235814606e-02  -2.4513923437313744e-02  -2.3432104989302319e-02  -2.2184336948145537e-02  -2.5683493998242494e-02  -2.1924579725435083e-02  -2.1616839383888101e-02  -2.3646751309774790e-02  -2.6245180975563626e-02  -2.3231945147858365e-02  -2.1759661410337118e-02  -2.3817939773300458e-02  -2.0945896574784420e-02  -2.2924624312586992e-02  -2.0393754405383328e-02  -2.2359984648342168e-02  -2.4801961241198302e-02  -2.6872546424912640e-02  -2.5291440069033555e-02  -2.1521644689724437e-02  -1.7861553927348690e-02  -2.3597169920202617e-02  -2.3659672066751701e-02  -2.1916788323995101e-02  -2.8137216542011421e-02  -2.8147258710040274e-02  -2.8201932946811049e-02  -2.8306474228664516e-02  -2.2869642283319662e-02  -9.7208300262373506e-03  -8.0183252665258081e-03  -1.9423370715981599e-02  -2.3652995211739625e-02  -2.4075248986172207e-02  -2.3365173645074160e-02  -2.6620046806105239e-02  -2.2111439661588999e-02  -2.2481824746479626e-02  -1.8335900569186683e-02  -1.7580635629648081e-02  -2.1783012080727162e-02  -1.6959919770451526e-02  -8.7954689397822423e-03  -8.9029355163224317e-03  -1.2187188133091826e-02  -2.0578919320198751e-02  -2.2436012711568316e-02  -1.8685131661791622e-02  -2.0136958805658599e-02  -1.8760104776855035e-02  -2.2566733851188289e-02  -2.2488195630055267e-02  -9.2808002300806738e-03  -2.3968954090823079e-02  -1.9180014079174228e-02  -2.0367623931209305e-02  -1.6234596981692821e-02  -2.2176461924515122e-02  -1.6354920126071797e-02  -1.2116733979828620e-02  -2.2986774070073688e-02  -7.6812323370613837e-03  -1.5483461213566922e-02  -2.5903740772370884e-02  -1.6760888316492153e-02  -1.9045707191097942e-02  -1.9677149026741152e-02  -9.5505783731721118e-03  -2.2871136236767019e-02  -2.1235663797495453e-02  -1.8822986737295200e-02  -7.4252930514146888e-03  -2.0404828511982897e-02  -1.9476001952553067e-02  -7.9970952549977877e-03  -1.5869744294440994e-02  -1.8673479248686672e-02  -7.4718888872161611e-03  -1.6132899549209823e-02  -2.1038289179400132e-02  -2.1843501219589272e-02  -1.8430201766861064e-02  -1.5235044503464891e-02  -1.9201479880532456e-02  -2.3343354099999134e-02  -1.6628565182994225e-02  -2.9660604434499933e-02  -2.9794351819734399e-02  -2.9655948112953204e-02  -2.9855932918585758e-02  -2.1402033039031279e-02  -2.3991847520317151e-02  -2.0885369124356661e-02  -2.2736168354052292e-02  -1.9582183659675113e-02  -1.5264604621263599e-02  -2.3397595833965862e-02  -2.2149865815791800e-02  -1.8536905324405811e-02  -1.4297775941223523e-02  -1.5540124167379385e-02  -1.3914474022435681e-02  -2.1661891968885835e-02  -1.4249810306586570e-02  -1.9541354249254853e-02  -1.3764489327598993e-02  -7.6131864749339716e-03  -1.8830156444253645e-02  -1.6121077682576927e-02  -1.7838607782993558e-02  -1.8974322317599383e-02  -1.5146650205445641e-02  -1.4407717508119432e-02  -8.7094168967493096e-03  -2.4887103376776017e-02  -3.1675770561979330e-02  -3.2097134363087698e-02  -3.4208033217492578e-02  -3.6932648074991685e-02  -3.4201201005609964e-02  -3.7568759887379587e-02  -3.2004701527027793e-02  -3.3824639649733063e-02  -3.1959872654092940e-02  -3.3937068393168797e-02  -3.7098967024366249e-02  -3.6830084765999693e-02  -1.6954353056356418e-02  -1.5089961510394148e-02  -1.8220485012077983e-02  -1.5720550089773296e-02  -3.1526782543308658e-02  -3.5633027027846216e-02  -3.5839732640976077e-02  -3.1576084978233505e-02  -4.0663778484372887e-02  -4.5379301599477381e-02  -3.2268798079897937e-02  -3.2086346186470611e-02  -3.7519386943503000e-02  -4.6521772584289640e-02  -4.8988987858261328e-02  -4.8914909656574308e-02  -5.0597621000749375e-02  -5.0920695978389260e-02  -1.8188356134784936e-02  -1.7646088385135848e-02  -1.8178943379207720e-02  -1.7646936350846722e-02  -1.7063216027411589e-02  -1.6626402753489811e-02  -1.7655510140684668e-02  -5.0683458858305462e-02  -5.1235919312874655e-02  -4.8654766311606132e-02  -4.6930931592103764e-02  -1.8590355839221435e-02  -1.7946486848541658e-02  -1.7227403365252830e-02  -1.6792346014396369e-02  -1.8204593596469171e-02  -1.7143135799113540e-02  -1.9711197825065158e-02  -1.6282893968954784e-02  -4.7032914401087346e-02  -4.5896727754025930e-02  -1.8252040791608973e-02  -1.6398798683711049e-02  -1.8278208181794403e-02  -4.1201759896324124e-02  -4.5201477040029352e-02  -4.7661711890801248e-02  -4.9522484697763471e-02  -5.0640106494561986e-02  -5.0732707700505322e-02  -4.9864733866931597e-02  -5.0733900282377252e-02  -5.0919226567293072e-02  -4.9080112463512147e-02  -4.1164861974247062e-02  -4.5443839054764533e-02  -4.7709777343466618e-02  -4.9556902729322727e-02  -4.8160135673512745e-02  -5.0713296531419941e-02  -5.0803123990263231e-02  -5.0954193748054544e-02  -5.1067452625090312e-02  -4.9434222246403314e-02  -3.3852426170227275e-02  -4.0722149399370501e-02  -4.5445043977007618e-02  -4.6616963260716723e-02  -4.9159853889860883e-02  -4.9062206054976042e-02  -5.0771321870364546e-02  -5.1107119480669268e-02  -5.0928450715823387e-02  -5.1264586778291300e-02  -3.0865101860301062e-02  -3.1218442285011801e-02  -3.3029833481041701e-02  -3.3135162206817767e-02  -4.9855390024370547e-02  -4.9669751622975572e-02  -4.9877631256779804e-02  -4.9295186217100627e-02  -4.9405289701405550e-02  -5.0015728570823384e-02  -1.7805887798920051e-02  -4.9189410824723862e-02  -5.1117277910251363e-02  -4.9015973480008274e-02  -4.8927652382209801e-02  -5.0586022894443104e-02  -4.9558547323100673e-02  -3.3870640496775579e-02  -4.6068896236129968e-02  -4.6040261482712133e-02  -1.4663892757112072e-02  -1.3673291752357404e-02  -1.4678956943502346e-02  -4.4998672062934085e-02  -4.5867547250995143e-02  -4.3186996321816225e-02  -4.2448355697239579e-02  -4.7927811355034614e-02  -4.9769935286065568e-02  -4.7515687336683203e-02  -4.9281241316494424e-02  -4.6309830142411010e-02  -4.9234432160999896e-02  -4.5966046690999567e-02  -4.8488238440611849e-02  -4.5219964017091219e-02  -4.7076468050002207e-02  -4.6324740786942036e-02  -4.9127316359709773e-02  -4.5870356344009995e-02  -4.8173229047964297e-02  -4.5078511598812918e-02  -4.7103636036331407e-02  -4.4221084232029036e-02  -4.6216210445505002e-02  -4.3563341146367181e-02  -4.5622339932007816e-02  -4.3080231934380181e-02  -4.5350930735943616e-02  -4.2820435416567652e-02  -4.5449608774559266e-02  -4.4197527851863767e-02  -4.6095761965531959e-02  -4.3443232415755442e-02  -4.5459953761001190e-02  -4.2917733290012791e-02  -4.5174772997189402e-02  -4.2612951189825686e-02  -4.5290659657408756e-02  -4.5281561739813216e-02  -4.4910425441394779e-02  -4.8583269469678711e-02  -4.8443417320526629e-02  -4.4985656894893221e-02  -4.4349356584365840e-02  -4.3119821297080529e-02  -4.5946157643899595e-02  -4.3533205671937282e-02  -4.6659344501676747e-02  -4.3951472313079255e-02  -4.2894594123633584e-02  -4.5750106707833263e-02  -4.3225947654526385e-02  -4.6417421913226412e-02  -4.3610839816637964e-02  -4.9101599924589595e-02  -4.5991678069566770e-02  -4.5016472532839941e-02  -4.6016184474695521e-02  -4.7022843908105363e-02  -4.6125252114179428e-02  -4.7170733030434286e-02  -4.4635618179655057e-02  -3.9795907930178578e-02  -4.4869017461612697e-02  -3.9829226030031695e-02  -4.5068190415989612e-02  -3.7514157928561186e-02  -4.5208521542565439e-02  -4.5151460787021154e-02  -4.1169012405565655e-02  -3.9402640061185726e-02  -3.7340075968576539e-02  -4.4961673218321750e-02  -4.0240292944865586e-02  -4.6942564573391646e-02  -3.8803140596746923e-02  -4.7047980765566780e-02  -3.6869567409324386e-02  -3.7080446597260522e-02  -3.6115615061959740e-02  -4.2015191516009069e-02  -3.8082772878529493e-02  -4.2259537201198731e-02  -3.0480632517945552e-02  -5.0149400245624642e-02  -1.1662910338904235e-02  -4.4713414703941412e-02  -5.0143318129016609e-02  -3.8859126632924616e-02  -3.5934944268440079e-02  -4.0548357432530602e-02  -3.8838152135086047e-02  -4.5371077520097794e-02  -4.5373133431239339e-02  -4.3901824837483748e-02  -4.7064707283054154e-02  -4.5253333153093343e-02  -4.6111443459701300e-02  -4.4628409924948424e-02  -4.2830667678535626e-02  -4.1800102205492920e-02  -4.4808246994288647e-02  -4.3113389928885935e-02  -4.0820717422425080e-02  -4.1612325107791129e-02  -3.9940941346085848e-02  -4.0748643522311723e-02  -3.9586978886727360e-02  -4.0281343030743308e-02  -3.9873880647630165e-02  -4.0567702815847678e-02  -3.7388577267413160e-02  -4.1876990763774408e-02  -4.2212798215114054e-02  -4.1180727442610109e-02  -3.0825661459704560e-02  -4.0065643927022179e-02  -3.7599834124007671e-02  -3.8403137163690253e-02  -3.5485545941608992e-02  -1.0637955178966790e-02  -1.2397779871795335e-02  -1.1736835253828008e-02  -4.4238472385701361e-02  -3.8872389048858765e-02  -4.7709354135315886e-02  -4.2649478171128151e-02  -4.5564136931573448e-02  -3.2140736641370439e-02  -3.2955157017687371e-02  -3.3735101494573601e-02  -3.8769643823845144e-02  -4.2112231901203216e-02  -4.5053273743910771e-02  -4.3371459556324675e-02  -3.8752366460557519e-02  -4.1233780328917752e-02  -4.1865368411163721e-02  -4.1171710729949129e-02  -3.9330716956100277e-02  -4.0472798651382397e-02  -3.7050210490412745e-02  -3.9604814627854673e-02  -4.0050174371556689e-02  -4.0476361297886981e-02  -3.8602581975591493e-02  -4.0962398234919518e-02  -3.7441466786173876e-02  -4.1051911726931588e-02  -4.1573172262760291e-02  -4.2911120140072527e-02  -4.0949713436202469e-02  -4.4328359229913177e-02  -4.0308411974715387e-02  -4.5276048391588004e-02  -3.8808633186207364e-02  -4.3886799153825665e-02  -4.3489567280685731e-02  -4.5126861644460059e-02  -4.2889202233404061e-02  -4.9430489708166304e-02  -4.7748248429363482e-02  -3.6137837344594373e-02  -3.3585224240052905e-02  -4.3482690394968930e-02  -4.2886370509535601e-02  -4.7527702044741250e-02  -3.9230906709544412e-02  -4.8252709432614158e-02  -3.5341735810370284e-02  -3.9445611316286794e-02  -4.0546488608857151e-02  -4.5783581545165819e-02  -3.4523828834288957e-02  -4.1194706302088720e-02  -3.8561514371681607e-02  -3.7672997950521939e-02  -3.7570432943327015e-02  -3.9398854711680434e-02  -4.1331473632504723e-02  -3.6876988249407383e-02  -3.9824071708326199e-02  -3.88674623786