<?xml version="1.0"?>
<VTKFile type="UnstructuredGrid"  version="0.1"  >
<UnstructuredGrid>
<Piece  NumberOfPoints="1297" NumberOfCells="2496">
<Points>
<DataArray  type="Float64"  NumberOfComponents="3"  format="ascii">0 0 0  0 1 0  1 1 0  1 0 0  1.1 -0.1 0  -0.1 -0.1 0  1.1 1.1 0  -0.1 1.1 0  0.3091749172494674 0.6578544497033726 0  0.3097573014786726 0.3426456266237182 0  0.6920199917726662 0.3416630811222938 0  0.6920840751678308 0.658677716502999 0  0.5005548773815909 0.5001839466768047 0  0 0.9499999999997918 0  0 0.8999999999995836 0  0 0.8499999999996529 0  0 0.7999999999999998 0  0 0.7500000000003466 0  0 0.7000000000006934 0  0 0.6500000000010401 0  0 0.6000000000013869 0  0 0.5500000000017335 0  0 0.5000000000020587 0  0 0.4500000000018723 0  0 0.4000000000016644 0  0 0.3500000000014564 0  0 0.3000000000012483 0  0 0.2500000000010403 0  0 0.2000000000008322 0  0 0.1500000000006241 0  0 0.100000000000416 0  0 0.05000000000020799 0  0.04999999999989965 0 0  0.09999999999981467 0 0  0.1499999999997036 0 0  0.1999999999995579 0 0  0.2499999999994121 0 0  0.2999999999992664 0 0  0.3499999999991206 0 0  0.3999999999989749 0 0  0.4499999999988292 0 0  0.4999999999986943 0 0  0.5499999999988151 0 0  0.5999999999989468 0 0  0.6499999999990784 0 0  0.69999999999921 0 0  0.7499999999993417 0 0  0.7999999999994734 0 0  0.8499999999996051 0 0  0.8999999999997368 0 0  0.9499999999998684 0 0  1 0.04999999999989965 0  1 0.09999999999981467 0  1 0.1499999999997036 0  1 0.1999999999995579 0  1 0.2499999999994121 0  1 0.2999999999992664 0  1 0.3499999999991206 0  1 0.3999999999989749 0  1 0.4499999999988292 0  1 0.4999999999986943 0  1 0.5499999999988151 0  1 0.5999999999989468 0  1 0.6499999999990784 0  1 0.69999999999921 0  1 0.7499999999993417 0  1 0.7999999999994734 0  1 0.8499999999996051 0  1 0.8999999999997368 0  1 0.9499999999998684 0  0.9499999999997918 1 0  0.8999999999995836 1 0  0.8499999999996529 1 0  0.7999999999999998 1 0  0.7500000000003466 1 0  0.7000000000006934 1 0  0.6500000000010401 1 0  0.6000000000013869 1 0  0.5500000000017335 1 0  0.5000000000020587 1 0  0.4500000000018723 1 0  0.4000000000016644 1 0  0.3500000000014564 1 0  0.3000000000012483 1 0  0.2500000000010403 1 0  0.2000000000008322 1 0  0.1500000000006241 1 0  0.100000000000416 1 0  0.05000000000020799 1 0  -0.1 1.05000000000004 0  -0.1 1.000000000000079 0  -0.1 0.9500000000001624 0  -0.1 0.9000000000003032 0  -0.1 0.850000000000444 0  -0.1 0.8000000000005848 0  -0.1 0.7500000000007256 0  -0.1 0.7000000000008665 0  -0.1 0.6500000000010508 0  -0.1 0.6000000000012352 0  -0.1 0.5500000000014196 0  -0.1 0.500000000001539 0  -0.1 0.4500000000014195 0  -0.1 0.4000000000013 0  -0.1 0.3500000000011588 0  -0.1 0.3000000000010178 0  -0.1 0.2500000000008986 0  -0.1 0.2000000000007579 0  -0.1 0.1500000000006174 0  -0.1 0.1000000000005272 0  -0.1 0.05000000000040083 0  -0.1 2.671196597248127e-13 0  -0.1 -0.0499999999998666 0  -0.0500000000000906 -0.1 0  -1.730560139634463e-13 -0.1 0  0.04999999999975802 -0.1 0  0.09999999999961506 -0.1 0  0.1499999999994613 -0.1 0  0.199999999999302 -0.1 0  0.2499999999991446 -0.1 0  0.2999999999990088 -0.1 0  0.3499999999988296 -0.1 0  0.3999999999986936 -0.1 0  0.4499999999985143 -0.1 0  0.4999999999984002 -0.1 0  0.5499999999985247 -0.1 0  0.5999999999986493 -0.1 0  0.6499999999987955 -0.1 0  0.6999999999989417 -0.1 0  0.7499999999990659 -0.1 0  0.7999999999992116 -0.1 0  0.8499999999993573 -0.1 0  0.8999999999994526 -0.1 0  0.949999999999584 -0.1 0  0.9999999999997226 -0.1 0  1.049999999999861 -0.1 0  1.1 -0.0500000000000906 0  1.1 -1.730560139634463e-13 0  1.1 0.04999999999975802 0  1.1 0.09999999999961506 0  1.1 0.1499999999994613 0  1.1 0.199999999999302 0  1.1 0.2499999999991446 0  1.1 0.2999999999990088 0  1.1 0.3499999999988296 0  1.1 0.3999999999986936 0  1.1 0.4499999999985143 0  1.1 0.4999999999984002 0  1.1 0.5499999999985247 0  1.1 0.5999999999986493 0  1.1 0.6499999999987955 0  1.1 0.6999999999989417 0  1.1 0.7499999999990659 0  1.1 0.7999999999992116 0  1.1 0.8499999999993573 0  1.1 0.8999999999994526 0  1.1 0.949999999999584 0  1.1 0.9999999999997226 0  1.1 1.049999999999861 0  1.05000000000004 1.1 0  1.000000000000079 1.1 0  0.9500000000001624 1.1 0  0.9000000000003032 1.1 0  0.850000000000444 1.1 0  0.8000000000005848 1.1 0  0.7500000000007256 1.1 0  0.7000000000008665 1.1 0  0.6500000000010508 1.1 0  0.6000000000012352 1.1 0  0.5500000000014196 1.1 0  0.500000000001539 1.1 0  0.4500000000014195 1.1 0  0.4000000000013 1.1 0  0.3500000000011588 1.1 0  0.3000000000010178 1.1 0  0.2500000000008986 1.1 0  0.2000000000007579 1.1 0  0.1500000000006174 1.1 0  0.1000000000005272 1.1 0  0.05000000000040083 1.1 0  2.671196597248127e-13 1.1 0  -0.0499999999998666 1.1 0  0.299665364203223 0.6455455033481257 0  0.2890611368677655 0.6294518319420567 0  0.2791217055121271 0.6111198798728886 0  0.2704003882518765 0.5908831719942196 0  0.2633562458206415 0.5693214610376538 0  0.2581951390428461 0.5467385240422887 0  0.2550604574333321 0.5235019339079943 0  0.2540593237957999 0.500031830684037 0  0.2551850661456116 0.4764731215903399 0  0.2584338914467129 0.4532376291270372 0  0.2637184692115313 0.4307147135973506 0  0.2708769151497978 0.4092396091899701 0  0.279678689887894 0.3891252188066195 0  0.2896936730818654 0.370841476442119 0  0.3003296143922432 0.3548052687222876 0  0.3199985680504371 0.331117811982079 0  0.3335090209586756 0.3180208232529241 0  0.3494223114373695 0.3049989871090653 0  0.3673200884332682 0.2928220796726496 0  0.3869016624086035 0.2819467344100349 0  0.4078766101959735 0.2726937072065321 0  0.4299823569056859 0.2652777327915063 0  0.4529009318578054 0.2598458071748255 0  0.4764111124211403 0.256491354689366 0  0.5001927814517353 0.2552797341588708 0  0.5240127594637105 0.2562274453600427 0  0.5475973723843155 0.2593222574508287 0  0.5706393475489301 0.2645125137437153 0  0.5928724163490261 0.2717291249229458 0  0.6140106935402089 0.2808224696850339 0  0.6337786988949013 0.2915955186389464 0  0.651867512073665 0.3037458115098811 0  0.6679797767033098 0.3168217547555933 0  0.6816174279820049 0.3299788799236138 0  0.70163040755898 0.3540653519824927 0  0.712223644359667 0.3701149919111436 0  0.7222678531830919 0.3885932319855158 0  0.7310622253914394 0.408953154209299 0  0.7381543410403164 0.4306102747140594 0  0.7433413745898266 0.4532125975235343 0  0.746508836388777 0.4764598638196628 0  0.7475844263011496 0.5000447676015117 0  0.7465359368893048 0.523648374263028 0  0.7433842807077174 0.5470003870495468 0  0.738217438732838 0.5696106947221081 0  0.7311255626287629 0.5913174419904639 0  0.7223716052116949 0.6116422998917267 0  0.7123310028224161 0.6301499986944702 0  0.7017312474288341 0.646225240842123 0  0.6816654342446313 0.6703797196150961 0  0.6679781518031224 0.6835829072208469 0  0.6518898314643879 0.6966503515211848 0  0.6338275835030764 0.7087964604608523 0  0.6140954248845087 0.7195700152570793 0  0.5929721673431568 0.7286799564334783 0  0.5707237998349847 0.7359373314713684 0  0.5476835035795656 0.741166719034234 0  0.524095437073035 0.7442992495692736 0  0.5002533346660469 0.7452873267767635 0  0.4764462827889857 0.7441189583931653 0  0.452938579558996 0.7408140164847788 0  0.4299691901248016 0.7354245870058833 0  0.4077928170519716 0.7280425918700457 0  0.3867664352675127 0.7188312882074174 0  0.3670806157792194 0.7079476366824486 0  0.3490561468985632 0.6957177877104944 0  0.3330502021863848 0.6826354126247988 0  0.319465477871848 0.6694604116528104 0  0.3787847140433261 0.3136864761609298 0  0.2852389057490896 0.4419032673320695 0  0.3786353401838831 0.686943515385896 0  0.2849601968063392 0.5582050110326864 0  0.7132667077486777 0.5804303036683987 0  0.601878016327092 0.6971994524771963 0  0.6214357756337872 0.3119233363006336 0  0.7180433058743653 0.4410670191168525 0  0.7224152377696156 0.5112825551639818 0  0.5573529415633293 0.290025194006223 0  0.4436730638258495 0.2929827249031322 0  0.4423343594269046 0.7078811665314442 0  0.5351571507958245 0.7125801294924453 0  0.2798431636224984 0.4882767717423968 0  0.2950561115102437 0.3983206556745114 0  0.4888769003356477 0.2901730519120998 0  0.299786454930422 0.6005305971661242 0  0.7008152783363069 0.395949591523977 0  0.4886919318789019 0.7142282998926689 0  0.6417728155731101 0.6786204302401168 0  0.3414466821639769 0.3352096757124578 0  0.6601969214492589 0.3357202739570017 0  0.3415483476026666 0.6677402793480618 0  0.6967510158467922 0.623884771929485 0  0.3109708390894163 0.3598912044223949 0  0.3121005247504166 0.6396792241900511 0  0.6760882828609615 0.6588850747356426 0  0.6911900631190941 0.3588343239399638 0  0.3594022433714917 0.6775218359359804 0  0.3694006555018965 0.6589297134968785 0  0.389549378001833 0.6656178971831914 0  0.3788014796023939 0.6384586593951415 0  0.4005393274663598 0.643478215827973 0  0.3880954344497907 0.6144428933990327 0  0.4148012798916631 0.6184810536705533 0  0.3992553917960109 0.5846239820586048 0  0.36218691170458 0.6093042390193383 0  0.4323435222774135 0.5870277727081766 0  0.4128066641002649 0.549104652212017 0  0.3737982603544309 0.5532078678778722 0  0.390086320379874 0.5144872999859422 0  0.352597559717047 0.516218187747727 0  0.3657065422593098 0.4820104217598459 0  0.404985453350087 0.4762788495653755 0  0.3845900758686406 0.4438209120129016 0  0.4198759747535359 0.4370620885884563 0  0.4004967077220929 0.4062888001070468 0  0.4324573454723388 0.3918101455696619 0  0.3676718354892921 0.4102514334512338 0  0.4091183618954006 0.3714205767592392 0  0.4411100419647448 0.6231177996298737 0  0.4663571121818935 0.5968440588139401 0  0.4843628565152889 0.6258841035305336 0  0.5026344345159681 0.5991290205842946 0  0.520002417406799 0.6261234439902376 0  0.5380500320631277 0.5990486785967889 0  0.555034738220765 0.6253127218256724 0  0.5728187552052654 0.5985183000121742 0  0.5900087058207774 0.6260899525530201 0  0.6069305188696842 0.5902994887198085 0  0.5916947124380415 0.556
[...]
<PointData  Scalars="state"> 
<DataArray  type="Float64"  Name="state"  format="ascii">0.0000000000000000e+00  0.0000000000000000e+00  0.0000000000000000e+00  0.0000000000000000e+00  0.0000000000000000e+00  0.0000000000000000e+00  0.0000000000000000e+00  0.0000000000000000e+00  -3.0711951493875747e-02  -3.0680777786629511e-02  -3.0847040450093101e-02  -3.0871330621084919e-02  -6.8906687315397393e-03  0.0000000000000000e+00  0.0000000000000000e+00  0.0000000000000000e+00  0.0000000000000000e+00  0.0000000000000000e+00  0.0000000000000000e+00  0.0000000000000000e+00  0.0000000000000000e+00  0.0000000000000000e+00  0.0000000000000000e+00  0.0000000000000000e+00  0.0000000000000000e+00  0.0000000000000000e+00  0.0000000000000000e+00  0.0000000000000000e+00  0.0000000000000000e+00  0.0000000000000000e+00  0.0000000000000000e+00  0.0000000000000000e+00  0.0000000000000000e+00  0.0000000000000000e+00  0.0000000000000000e+00  0.0000000000000000e+00  0.0000000000000000e+00  0.0000000000000000e+00  0.0000000000000000e+00  0.0000000000000000e+00  0.0000000000000000e+00  0.0000000000000000e+00  0.0000000000000000e+00  0.0000000000000000e+00  0.0000000000000000e+00  0.0000000000000000e+00  0.0000000000000000e+00  0.0000000000000000e+00  0.0000000000000000e+00  0.0000000000000000e+00  0.0000000000000000e+00  0.0000000000000000e+00  0.0000000000000000e+00  0.0000000000000000e+00  0.0000000000000000e+00  0.0000000000000000e+00  0.0000000000000000e+00  0.0000000000000000e+00  0.0000000000000000e+00  0.0000000000000000e+00  0.0000000000000000e+00  0.0000000000000000e+00  0.0000000000000000e+00  0.0000000000000000e+00  0.0000000000000000e+00  0.0000000000000000e+00  0.0000000000000000e+00  0.0000000000000000e+00  0.0000000000000000e+00  0.0000000000000000e+00  0.0000000000000000e+00  0.0000000000000000e+00  0.0000000000000000e+00  0.0000000000000000e+00  0.0000000000000000e+00  0.0000000000000000e+00  0.0000000000000000e+00  0.0000000000000000e+00  0.0000000000000000e+00  0.0000000000000000e+00  0.0000000000000000e+00  0.0000000000000000e+00  0.0000000000000000e+00  0.0000000000000000e+00  0.0000000000000000e+00  0.0000000000000000e+00  0.0000000000000000e+00  0.0000000000000000e+00  0.0000000000000000e+00  0.0000000000000000e+00  0.0000000000000000e+00  0.0000000000000000e+00  0.0000000000000000e+00  0.0000000000000000e+00  0.0000000000000000e+00  0.0000000000000000e+00  0.0000000000000000e+00  0.0000000000000000e+00  0.0000000000000000e+00  0.0000000000000000e+00  0.0000000000000000e+00  0.0000000000000000e+00  0.0000000000000000e+00  0.0000000000000000e+00  0.0000000000000000e+00  0.0000000000000000e+00  0.0000000000000000e+00  0.0000000000000000e+00  0.0000000000000000e+00  0.0000000000000000e+00  0.0000000000000000e+00  0.0000000000000000e+00  0.0000000000000000e+00  0.0000000000000000e+00  0.0000000000000000e+00  0.0000000000000000e+00  0.0000000000000000e+00  0.0000000000000000e+00  0.0000000000000000e+00  0.0000000000000000e+00  0.0000000000000000e+00  0.0000000000000000e+00  0.0000000000000000e+00  0.0000000000000000e+00  0.0000000000000000e+00  0.0000000000000000e+00  0.0000000000000000e+00  0.0000000000000000e+00  0.0000000000000000e+00  0.0000000000000000e+00  0.0000000000000000e+00  0.0000000000000000e+00  0.0000000000000000e+00  0.0000000000000000e+00  0.0000000000000000e+00  0.0000000000000000e+00  0.0000000000000000e+00  0.0000000000000000e+00  0.0000000000000000e+00  0.0000000000000000e+00  0.0000000000000000e+00  0.0000000000000000e+00  0.0000000000000000e+00  0.0000000000000000e+00  0.0000000000000000e+00  0.0000000000000000e+00  0.0000000000000000e+00  0.0000000000000000e+00  0.0000000000000000e+00  0.0000000000000000e+00  0.0000000000000000e+00  0.0000000000000000e+00  0.0000000000000000e+00  0.0000000000000000e+00  0.0000000000000000e+00  0.0000000000000000e+00  0.0000000000000000e+00  0.0000000000000000e+00  0.0000000000000000e+00  0.0000000000000000e+00  0.0000000000000000e+00  0.0000000000000000e+00  0.0000000000000000e+00  0.0000000000000000e+00  0.0000000000000000e+00  0.0000000000000000e+00  0.0000000000000000e+00  0.0000000000000000e+00  0.0000000000000000e+00  0.0000000000000000e+00  0.0000000000000000e+00  0.0000000000000000e+00  0.0000000000000000e+00  0.0000000000000000e+00  0.0000000000000000e+00  0.0000000000000000e+00  0.0000000000000000e+00  0.0000000000000000e+00  0.0000000000000000e+00  0.0000000000000000e+00  0.0000000000000000e+00  -2.9945643352849261e-02  -2.9575237370991967e-02  -2.9149064924241085e-02  -2.8708266694013485e-02  -2.8341572797680837e-02  -2.8058817511496529e-02  -2.7834026714377763e-02  -2.7877702969486919e-02  -2.7894782237284414e-02  -2.8110640301959443e-02  -2.8405410510722366e-02  -2.8737088934550070e-02  -2.9053908414514891e-02  -2.9442298622774112e-02  -2.9828973597383946e-02  -3.0208152050511344e-02  -2.9934797651011570e-02  -2.9704689383987914e-02  -2.9477214428798804e-02  -2.9256206334744732e-02  -2.8937567857739717e-02  -2.8619465600527257e-02  -2.8418669300537557e-02  -2.8225834932197942e-02  -2.8177258069156004e-02  -2.8234895799433141e-02  -2.8409011568482759e-02  -2.8670954450363880e-02  -2.8963213772966508e-02  -2.9351205100634079e-02  -2.9670851439707706e-02  -2.9886360250141658e-02  -3.0111991919916262e-02  -3.0365510086815175e-02  -3.0161444979799622e-02  -2.9673859239020103e-02  -2.9245488426625863e-02  -2.8782066668202187e-02  -2.8408645569664295e-02  -2.8115204054842056e-02  -2.7950092590746677e-02  -2.7866754974895377e-02  -2.7936678022980117e-02  -2.8180214240086102e-02  -2.8470093258036851e-02  -2.8802962652289096e-02  -2.9293548938606161e-02  -2.9734273869712835e-02  -3.0218774234802393e-02  -3.0353805933195272e-02  -3.0085499713519401e-02  -2.9901227062081006e-02  -2.9661534187331768e-02  -2.9331990228511663e-02  -2.8921047524455106e-02  -2.8630196234919338e-02  -2.8326235871955124e-02  -2.8132307008442742e-02  -2.8101904882055311e-02  -2.8186490380892142e-02  -2.8347737165005448e-02  -2.8513226934861989e-02  -2.8845183428991152e-02  -2.9186515317048366e-02  -2.9441588409040067e-02  -2.9713701921817007e-02  -2.9958475455623735e-02  -3.0221130145253475e-02  -2.4104868303241246e-02  -2.3318019613745741e-02  -2.4085986511688667e-02  -2.3314561069011197e-02  -2.4237444843423581e-02  -2.3728097650836805e-02  -2.4244340240149372e-02  -2.3579297433912346e-02  -2.2897790905105950e-02  -2.2898363627874608e-02  -2.2487027933353172e-02  -2.2483744174361685e-02  -2.2316274111045486e-02  -2.2813005427580819e-02  -2.4801068581944155e-02  -2.1577732678321773e-02  -2.3880371303671048e-02  -2.4154465234257658e-02  -2.2123409605015323e-02  -2.4987441638614199e-02  -2.5414277288329620e-02  -2.5311597584495419e-02  -2.5696238159585227e-02  -2.5588370971529679e-02  -2.6659783915051485e-02  -2.6169273758791693e-02  -2.6928372968859068e-02  -2.6860251573947343e-02  -2.4815746202965453e-02  -2.1624523959134102e-02  -2.0632511676348934e-02  -1.8875287581801646e-02  -1.7705077169291601e-02  -1.6143234379007561e-02  -1.4669233008204665e-02  -1.3252940179760324e-02  -1.7842957636133371e-02  -1.1418165608776291e-02  -1.0519385519499901e-02  -1.3588109082517478e-02  -1.1238465711551106e-02  -1.4596191148828160e-02  -1.3406011806310661e-02  -1.0334923974701475e-02  -1.2805170827942195e-02  -1.0718726585565708e-02  -1.3803553088582263e-02  -1.2983085357324330e-02  -1.6143042879477564e-02  -1.6056610356314345e-02  -1.3723645058633632e-02  -1.0839906333027980e-02  -1.2876382363155244e-02  -1.0632978189507963e-02  -1.2993776218804187e-02  -1.1145308877772642e-02  -1.3816362800127019e-02  -1.2427153959426167e-02  -1.5511388841654792e-02  -1.3919591729058834e-02  -1.1037416150852783e-02  -1.3573181273884004e-02  -1.1154705029311582e-02  -1.6417870620049950e-02  -1.6763318752320795e-02  -1.7379989773124754e-02  -1.6737815439259927e-02  -1.6668774063955821e-02  -1.7959541595027554e-02  -1.5413642098515411e-02  -1.2577117550689257e-02  -1.9793797778686797e-02  -1.8148841704528216e-02  -1.6270816502212595e-02  -1.7018378692742388e-02  -1.5754473030374624e-02  -1.2142235027789553e-02  -1.6075194793918963e-02  -1.3043536484562520e-02  -9.7182017807924299e-03  -1.1653992238498959e-02  -1.4491232482403305e-02  -1.4004648765910106e-02  -1.0456499944633765e-02  -1.3601732435159296e-02  -1.6339643787296375e-02  -1.6451125560874150e-02  -1.4688944632838909e-02  -1.8732676693083566e-02  -1.9322287718686673e-02  -2.1146280588940185e-02  -2.1189858657066123e-02  -9.0244604666822117e-03  -1.9436090861850636e-02  -1.9231771136113029e-02  -1.9954065782085795e-02  -1.8154680879819723e-02  -2.1508990771312662e-02  -2.1781682431200294e-02  -2.0264287399172201e-02  -1.6394446039187976e-02  -1.9073582506185582e-02  -2.0863286045744105e-02  -1.8158640924977713e-02  -1.6116685711249534e-02  -1.8484382499949627e-02  -1.9049739951985781e-02  -1.6486316603166795e-02  -1.8789984434201417e-02  -2.0842448069249488e-02  -2.1315974864244094e-02  -2.0095544803366436e-02  -2.0130881796600684e-02  -1.8996507658472460e-02  -2.1377216951742016e-02  -1.6782247245489913e-02  -8.4180875828086272e-03  -2.1087559726101213e-02  -8.4760076244189148e-03  -1.4356937072130030e-02  -1.7601266971806400e-02  -1.4904456529985287e-02  -1.7742682664208843e-02  -2.0052009575450464e-02  -2.0583836905867431e-02  -1.8827284127573403e-02  -1.6880644053481698e-02  -1.8563126641420773e-02  -1.9322761449907824e-02  -1.0104628002463629e-02  -2.2986887111277589e-02  -2.3381284304073439e-02  -1.7243633091287236e-02  -1.9670771429477058e-02  -1.9156487873758048e-02  -1.7493294538723270e-02  -1.8466095423383126e-02  -2.0863687831509936e-02  -1.9143457499393057e-02  -2.0774999377249373e-02  -2.1267852548658196e-02  -2.2550952059914982e-02  -2.4077707600870090e-02  -2.4688816719560844e-02  -2.0010385161321257e-02  -2.2142498282101734e-02  -2.2340342254070833e-02  -2.2473647723094216e-02  -2.4392498068713731e-02  -2.5466031773837605e-02  -2.2878803138814137e-02  -1.9274118380761662e-02  -1.6855348311289667e-02  -2.4133164844997973e-02  -2.3432126862219429e-02  -2.2381253931008847e-02  -2.5040806165333978e-02  -2.2132379135728263e-02  -2.2118047581139205e-02  -2.3675124253443265e-02  -2.5449853184792575e-02  -2.2719603961836091e-02  -2.2329170070534608e-02  -2.3851331195683861e-02  -2.1029039171886511e-02  -2.3149718293532320e-02  -2.0369844600073198e-02  -2.2765151894364899e-02  -2.4479057882642923e-02  -2.5808752959763155e-02  -2.4368613112902598e-02  -2.1342462963155746e-02  -1.8129061368917499e-02  -2.2920568850448214e-02  -2.3655509163565604e-02  -2.1535091268797386e-02  -2.6773747687236844e-02  -2.6781451974173247e-02  -2.6878161649005246e-02  -2.6887630564422595e-02  -2.3221547804281796e-02  -9.6752137071873141e-03  -7.9425500484855225e-03  -1.9847182763441152e-02  -2.3778053473329480e-02  -2.4169131433009437e-02  -2.2885171324209887e-02  -2.5717957146018447e-02  -2.2656846804349477e-02  -2.2034355041765475e-02  -1.8608601126507338e-02  -1.7574230505635821e-02  -2.2373836596360074e-02  -1.7309431415113659e-02  -8.7958943621538922e-03  -8.8609112732463309e-03  -1.2217482164178971e-02  -2.0189946370172164e-02  -2.2000111194267792e-02  -1.8981444815686605e-02  -2.0130010931118065e-02  -1.8982243094065529e-02  -2.3383754621515932e-02  -2.3206324608013675e-02  -9.2229725034167678e-03  -2.3336768043465968e-02  -1.9419718084885781e-02  -2.0324701261448037e-02  -1.6182228310268137e-02  -2.2035970518192460e-02  -1.6417427276582672e-02  -1.2191137657185087e-02  -2.3612404826341811e-02  -7.6198483379122913e-03  -1.5430685737636210e-02  -2.4892250750961433e-02  -1.6823965365454979e-02  -1.9295057892799360e-02  -1.9812646034807091e-02  -9.4899690566975677e-03  -2.3508972054014893e-02  -2.1044615943187534e-02  -1.9153397496337266e-02  -7.3686810449857722e-03  -2.0646000271430820e-02  -1.9221166810552057e-02  -7.9259130509335488e-03  -1.6004162011354038e-02  -1.8982164135709505e-02  -7.4248428638303988e-03  -1.6270158493721116e-02  -2.1209082775130957e-02  -2.1624157490631783e-02  -1.8270885958810178e-02  -1.5323358768812873e-02  -1.9384676168477527e-02  -2.4014139945564388e-02  -1.6680262041597636e-02  -2.8010415468958060e-02  -2.8097420945308163e-02  -2.7989351254482039e-02  -2.8167205774080963e-02  -2.1118968393231179e-02  -2.3294482386794067e-02  -2.1194848792692705e-02  -2.2551906461661712e-02  -1.9761659443663062e-02  -1.5214443814410334e-02  -2.2747516011491727e-02  -2.1754568337784677e-02  -1.8302409807732192e-02  -1.4301731847793526e-02  -1.5625011193300925e-02  -1.3940232951980552e-02  -2.1738593541124979e-02  -1.4263660233189238e-02  -1.9490079193373141e-02  -1.3853989904463964e-02  -7.5426886368304127e-03  -1.8962093703091085e-02  -1.6107594172327454e-02  -1.7795141304504821e-02  -1.9322943602746986e-02  -1.5393780568332493e-02  -1.4408508631887371e-02  -8.6836292868166121e-03  -2.4077783263455617e-02  -3.1718325378104907e-02  -3.2079749476076287e-02  -3.3959097152577347e-02  -3.6411181079151811e-02  -3.3934523375782143e-02  -3.7005808441033967e-02  -3.2032730703974319e-02  -3.3643672753150028e-02  -3.1990489497890622e-02  -3.3710330573643428e-02  -3.6531253249337509e-02  -3.6314774109603994e-02  -1.6948184240574246e-02  -1.5081046678753556e-02  -1.8222961736865797e-02  -1.5711780271103183e-02  -3.2533187630624072e-02  -3.5928479017505281e-02  -3.6071032013015751e-02  -3.2541536019137084e-02  -4.0863423707673041e-02  -4.6235191525856686e-02  -3.3094566730962269e-02  -3.2992268393109564e-02  -3.7734797774586722e-02  -4.7686748546958160e-02  -5.0107273993973613e-02  -4.9781782194622329e-02  -5.1563925590186264e-02  -5.1642574798039582e-02  -1.7259486213958255e-02  -1.6763807334263959e-02  -1.7270692730261297e-02  -1.6755871437341221e-02  -1.7485191336694406e-02  -1.7019800684905568e-02  -1.8074996800838000e-02  -5.1438398925114565e-02  -5.1684668711726035e-02  -4.9944128277466804e-02  -4.8301967599816191e-02  -1.9262129496591108e-02  -1.8565903164991914e-02  -1.7794744294379116e-02  -1.7368764674268199e-02  -1.8841371003469633e-02  -1.7711527392311355e-02  -2.0423225216625936e-02  -1.5858978169400184e-02  -4.8386340216393119e-02  -4.7336149275445528e-02  -1.7797799626202843e-02  -1.5981565778374628e-02  -1.7826035468679367e-02  -4.1102086890182014e-02  -4.5998374591279777e-02  -4.8318089161460805e-02  -5.0468747668380207e-02  -5.1321071331856385e-02  -5.1611354061439289e-02  -5.0986870805276481e-02  -5.1317423353513553e-02  -5.1262653964204201e-02  -4.9836439254004564e-02  -4.1008687968541180e-02  -4.6232613684823842e-02  -4.8338640858152045e-02  -5.0498636879260546e-02  -4.9302393391999239e-02  -5.1377828799290981e-02  -5.1693198975836699e-02  -5.1538283798319359e-02  -5.1387360297143171e-02  -5.0189862373164536e-02  -3.4314321234575028e-02  -4.0937906042991946e-02  -4.6308688209523323e-02  -4.7794234849679582e-02  -5.0295848272460510e-02  -4.9944803229307895e-02  -5.1749166197802107e-02  -5.1835951063600089e-02  -5.1698562894078086e-02  -5.1745908341053123e-02  -3.1883506686022065e-02  -3.2302692087304165e-02  -3.3743640636332936e-02  -3.3784735261034246e-02  -5.1014085327767474e-02  -4.9926377584227306e-02  -4.9811557844973195e-02  -4.9834248258681969e-02  -4.9664626104306719e-02  -4.9945669958322537e-02  -1.8128917835666402e-02  -4.9412650009458069e-02  -5.1220713942416889e-02  -4.9529585487982732e-02  -4.9124909217621630e-02  -5.0611674959444311e-02  -5.0526035799735400e-02  -3.4300825211162886e-02  -4.6021678310028041e-02  -4.5997601024976534e-02  -1.4851910441652691e-02  -1.3845882660051384e-02  -1.4862373324434401e-02  -4.5286872132114124e-02  -4.6111311241431842e-02  -4.4507241450663156e-02  -4.3838846057546052e-02  -4.7782071419500763e-02  -4.9385974313220213e-02  -4.7339518979714897e-02  -4.8848971009376928e-02  -4.5898309632856966e-02  -4.8735644499436598e-02  -4.5111968358351871e-02  -4.7479668781749883e-02  -4.3886946502022364e-02  -4.5492000404294582e-02  -4.5909801469820898e-02  -4.8572883062850417e-02  -4.5011558344233961e-02  -4.7095883351017130e-02  -4.3738900736975755e-02  -4.5508862205695645e-02  -4.2440966352858628e-02  -4.4172844591841259e-02  -4.1427457134652713e-02  -4.3254452354573439e-02  -4.0725892493923305e-02  -4.2836248628372209e-02  -4.0427789619941215e-02  -4.2990319444404242e-02  -4.2415035687790162e-02  -4.4047958111502916e-02  -4.1298658684693478e-02  -4.3083144462704968e-02  -4.0548620159358319e-02  -4.2642456771412776e-02  -4.0199219736187772e-02  -4.2801056091768028e-02  -4.5582767883007712e-02  -4.5449185877934208e-02  -4.9159054979163889e-02  -4.8967927112305472e-02  -4.5268614463061144e-02  -4.4868106401864463e-02  -4.0855277971509389e-02  -4.3727680001944616e-02  -4.1562711938537326e-02  -4.4825309379628683e-02  -4.2383315988823424e-02  -4.0600478469959692e-02  -4.3492486492281865e-02  -4.1216832814763779e-02  -4.4532491002478219e-02  -4.1975508072756622e-02  -5.0136585065696744e-02  -4.6817264814499576e-02  -4.6078281302573347e-02  -4.4036075642484671e-02  -4.5451790420590152e-02  -4.4187723331539100e-02  -4.5634541053695139e-02  -4.2210437029141908e-02  -3.9482472310831379e-02  -4.2458929391817203e-02  -3.9526958389290420e-02  -4.2959137019438993e-02  -3.5404170116342122e-02  -4.3100765414110481e-02  -4.4542065155624991e-02  -4.0883691907992133e-02  -3.9714024196823537e-02  -3.5214351756448888e-02  -4.4380127133576058e-02  -3.9938690109946398e-02  -4.5697797914630731e-02  -3.9096205979185970e-02  -4.5807301974206016e-02  -3.8063637944672726e-02  -3.8164127087771990e-02  -3.7330941160128951e-02  -4.3401874246161432e-02  -3.8547290296716968e-02  -4.2970301660105001e-02  -3.0733576724493113e-02  -4.9947451179013044e-02  -1.1710490210897444e-02  -4.6055353161121096e-02  -4.9983148034245764e-02  -3.7444183703863099e-02  -3.7129274730958145e-02  -4.1839521618417544e-02  -3.7427365382905281e-02  -4.5600859163117340e-02  -4.5560135569306562e-02  -4.4970196204827714e-02  -4.8448351605902440e-02  -4.6642291819708422e-02  -4.7560520154671583e-02  -4.6086635809671976e-02  -4.4226243771896691e-02  -4.3190565395391421e-02  -4.6160185611080214e-02  -4.4504865718772171e-02  -4.2150531609592222e-02  -4.2894520534460072e-02  -4.1187554642556710e-02  -4.1939339232868675e-02  -4.0773382459871034e-02  -4.1417693777713746e-02  -4.0678928690369362e-02  -4.1167004915250188e-02  -3.7845544313522342e-02  -4.2566258995133832e-02  -4.3535022673016073e-02  -4.2411025011265195e-02  -3.1073818517157171e-02  -4.1241648560135936e-02  -3.7690089858485334e-02  -3.8513967948675371e-02  -3.6607911674683170e-02  -1.0681011490502020e-02  -1.2456940852042696e-02  -1.1790062735048065e-02  -4.5175662425568565e-02  -3.8751940088480832e-02  -4.9007196175112233e-02  -4.3868812919265032e-02  -4.7021418391126189e-02  -3.2688626187174288e-02  -3.3345562319194236e-02  -3.4291299894048360e-02  -4.0034415823213758e-02  -4.3570221058344044e-02  -4.6581305951889203e-02  -4.4886487205335522e-02  -4.0125432436595040e-02  -4.2649642457904202e-02  -4.3256838175364645e-02  -4.2496320435459416e-02  -4.0647284622080657e-02  -4.1748051443775774e-02  -3.8265144436068682e-02  -4.0849021212930096e-02  -4.1250479391488064e-02  -4.1713658117447087e-02  -3.9851995004707673e-02  -4.2284191108096843e-02  -3.8709011616829055e-02  -4.2454167338044115e-02  -4.2937458965469827e-02  -4.4388573337232208e-02  -4.2382724908219073e-02  -4.5864623383324123e-02  -4.1688887267320750e-02  -4.6737277580782083e-02  -4.0036541716263412e-02  -4.5128871813468099e-02  -4.2082744804464257e-02  -4.4035142956810366e-02  -4.1167315995853812e-02  -4.8695306478748333e-02  -4.7252801979233629e-02  -3.7353670414786322e-02  -3.4592397712441235e-02  -4.2116263511123922e-02  -4.1210972959088467e-02  -4.7441744248494268e-02  -4.0349016861253348e-02  -4.7145205944520402e-02  -3.6477164225415762e-02  -3.8344582478959624e-02  -4.1737603267497210e-02  -4.7287723906179420e-02  -3.5507343852703516e-02  -4.2180409984506603e-02  -3.9636371951640575e-02  -3.6083883004624909e-02  -3.6346153968911103e-02  -3.8341365864909306e-02  -4.2539511007309544e-02  -3.7663939882927933e-02  -4.0965770458716751e-02  -3.99551102849