<?xml version="1.0"?>
<VTKFile type="UnstructuredGrid"  version="0.1"  >
<UnstructuredGrid>
<Piece  NumberOfPoints="1297" NumberOfCells="2496">
<Points>
<DataArray  type="Float64"  NumberOfComponents="3"  format="ascii">0 0 0  0 1 0  1 1 0  1 0 0  1.1 -0.1 0  -0.1 -0.1 0  1.1 1.1 0  -0.1 1.1 0  0.3019852836999636 0.6611367580748252 0  0.3026913262145658 0.3393801203264565 0  0.6990408298323748 0.3383631320473197 0  0.6990585678268419 0.661914272459161 0  0.5005305140347286 0.5001768823835223 0  0 0.9499999999997918 0  0 0.8999999999995836 0  0 0.8499999999996529 0  0 0.7999999999999998 0  0 0.7500000000003466 0  0 0.7000000000006934 0  0 0.6500000000010401 0  0 0.6000000000013869 0  0 0.5500000000017335 0  0 0.5000000000020587 0  0 0.4500000000018723 0  0 0.4000000000016644 0  0 0.3500000000014564 0  0 0.3000000000012483 0  0 0.2500000000010403 0  0 0.2000000000008322 0  0 0.1500000000006241 0  0 0.100000000000416 0  0 0.05000000000020799 0  0.04999999999989965 0 0  0.09999999999981467 0 0  0.1499999999997036 0 0  0.1999999999995579 0 0  0.2499999999994121 0 0  0.2999999999992664 0 0  0.3499999999991206 0 0  0.3999999999989749 0 0  0.4499999999988292 0 0  0.4999999999986943 0 0  0.5499999999988151 0 0  0.5999999999989468 0 0  0.6499999999990784 0 0  0.69999999999921 0 0  0.7499999999993417 0 0  0.7999999999994734 0 0  0.8499999999996051 0 0  0.8999999999997368 0 0  0.9499999999998684 0 0  1 0.04999999999989965 0  1 0.09999999999981467 0  1 0.1499999999997036 0  1 0.1999999999995579 0  1 0.2499999999994121 0  1 0.2999999999992664 0  1 0.3499999999991206 0  1 0.3999999999989749 0  1 0.4499999999988292 0  1 0.4999999999986943 0  1 0.5499999999988151 0  1 0.5999999999989468 0  1 0.6499999999990784 0  1 0.69999999999921 0  1 0.7499999999993417 0  1 0.7999999999994734 0  1 0.8499999999996051 0  1 0.8999999999997368 0  1 0.9499999999998684 0  0.9499999999997918 1 0  0.8999999999995836 1 0  0.8499999999996529 1 0  0.7999999999999998 1 0  0.7500000000003466 1 0  0.7000000000006934 1 0  0.6500000000010401 1 0  0.6000000000013869 1 0  0.5500000000017335 1 0  0.5000000000020587 1 0  0.4500000000018723 1 0  0.4000000000016644 1 0  0.3500000000014564 1 0  0.3000000000012483 1 0  0.2500000000010403 1 0  0.2000000000008322 1 0  0.1500000000006241 1 0  0.100000000000416 1 0  0.05000000000020799 1 0  -0.1 1.05000000000004 0  -0.1 1.000000000000079 0  -0.1 0.9500000000001624 0  -0.1 0.9000000000003032 0  -0.1 0.850000000000444 0  -0.1 0.8000000000005848 0  -0.1 0.7500000000007256 0  -0.1 0.7000000000008665 0  -0.1 0.6500000000010508 0  -0.1 0.6000000000012352 0  -0.1 0.5500000000014196 0  -0.1 0.500000000001539 0  -0.1 0.4500000000014195 0  -0.1 0.4000000000013 0  -0.1 0.3500000000011588 0  -0.1 0.3000000000010178 0  -0.1 0.2500000000008986 0  -0.1 0.2000000000007579 0  -0.1 0.1500000000006174 0  -0.1 0.1000000000005272 0  -0.1 0.05000000000040083 0  -0.1 2.671196597248127e-13 0  -0.1 -0.0499999999998666 0  -0.0500000000000906 -0.1 0  -1.730560139634463e-13 -0.1 0  0.04999999999975802 -0.1 0  0.09999999999961506 -0.1 0  0.1499999999994613 -0.1 0  0.199999999999302 -0.1 0  0.2499999999991446 -0.1 0  0.2999999999990088 -0.1 0  0.3499999999988296 -0.1 0  0.3999999999986936 -0.1 0  0.4499999999985143 -0.1 0  0.4999999999984002 -0.1 0  0.5499999999985247 -0.1 0  0.5999999999986493 -0.1 0  0.6499999999987955 -0.1 0  0.6999999999989417 -0.1 0  0.7499999999990659 -0.1 0  0.7999999999992116 -0.1 0  0.8499999999993573 -0.1 0  0.8999999999994526 -0.1 0  0.949999999999584 -0.1 0  0.9999999999997226 -0.1 0  1.049999999999861 -0.1 0  1.1 -0.0500000000000906 0  1.1 -1.730560139634463e-13 0  1.1 0.04999999999975802 0  1.1 0.09999999999961506 0  1.1 0.1499999999994613 0  1.1 0.199999999999302 0  1.1 0.2499999999991446 0  1.1 0.2999999999990088 0  1.1 0.3499999999988296 0  1.1 0.3999999999986936 0  1.1 0.4499999999985143 0  1.1 0.4999999999984002 0  1.1 0.5499999999985247 0  1.1 0.5999999999986493 0  1.1 0.6499999999987955 0  1.1 0.6999999999989417 0  1.1 0.7499999999990659 0  1.1 0.7999999999992116 0  1.1 0.8499999999993573 0  1.1 0.8999999999994526 0  1.1 0.949999999999584 0  1.1 0.9999999999997226 0  1.1 1.049999999999861 0  1.05000000000004 1.1 0  1.000000000000079 1.1 0  0.9500000000001624 1.1 0  0.9000000000003032 1.1 0  0.850000000000444 1.1 0  0.8000000000005848 1.1 0  0.7500000000007256 1.1 0  0.7000000000008665 1.1 0  0.6500000000010508 1.1 0  0.6000000000012352 1.1 0  0.5500000000014196 1.1 0  0.500000000001539 1.1 0  0.4500000000014195 1.1 0  0.4000000000013 1.1 0  0.3500000000011588 1.1 0  0.3000000000010178 1.1 0  0.2500000000008986 1.1 0  0.2000000000007579 1.1 0  0.1500000000006174 1.1 0  0.1000000000005272 1.1 0  0.05000000000040083 1.1 0  2.671196597248127e-13 1.1 0  -0.0499999999998666 1.1 0  0.2923384933360069 0.6486500680719739 0  0.2822206631212216 0.6320302772471984 0  0.273296146698047 0.6129957562191324 0  0.265949680288366 0.5920816667369877 0  0.2603112204965166 0.5699751298725954 0  0.2563515337465546 0.5470501410072894 0  0.2540218631303848 0.5236372501384954 0  0.253297450184521 0.5000511097410451 0  0.2541500951890919 0.4764199681724102 0  0.2566023896616365 0.4530134318633796 0  0.260699351683122 0.43013426048641 0  0.2664688987795882 0.4080864422055731 0  0.2739402526760044 0.387263658262463 0  0.2829668630194769 0.3682763166268527 0  0.2931226990621476 0.3517470008631626 0  0.3136419088488496 0.3281631613749005 0  0.3282773296947664 0.3161017576719137 0  0.3455477158122319 0.3047314597106886 0  0.3647811693075818 0.294616473976034 0  0.3855034788780975 0.2859777142134765 0  0.4073197742549434 0.27889207120422 0  0.4299173337693783 0.2733718651572114 0  0.4530732307933342 0.269392049818944 0  0.4765937852040756 0.2669597848353808 0  0.5002852233446864 0.2660764099679346 0  0.5239998318015032 0.2667411192019638 0  0.547562903528177 0.2689553534814438 0  0.5707998978369075 0.272729353005052 0  0.5934835055918439 0.2780758192470537 0  0.6154066955642525 0.2850050944421733 0  0.6362799070764803 0.2935139638288556 0  0.6556954216212662 0.3035648149107995 0  0.6731648810977107 0.3149385067644457 0  0.6879276458527647 0.327026165909394 0  0.7088070609367396 0.3509844020956476 0  0.7189287938575739 0.3675523153807999 0  0.7279545629490901 0.3867341757301589 0  0.7353839944229617 0.4077667125653323 0  0.7410863496628926 0.4299696863955203 0  0.7450976771474016 0.4529461685629738 0  0.747480363121972 0.4764020334953435 0  0.7482755135112843 0.5000923181494633 0  0.7474941526104674 0.5237928792736904 0  0.7451199682765511 0.5472976485580311 0  0.741123345983942 0.570278303634161 0  0.7354127114685096 0.5924927163923164 0  0.7280097962270768 0.6134838101847918 0  0.7189889139709693 0.632678705838323 0  0.7088599223643099 0.6492582799771671 0  0.6879362795295758 0.6732700126944772 0  0.6731396546443494 0.6853963324074431 0  0.6557006319418638 0.6967887246563805 0  0.6363044080376756 0.7068488073354368 0  0.6154504209102325 0.7153765301401563 0  0.5935282999929928 0.7223266063262287 0  0.570817658948225 0.7277068129375893 0  0.5475720662777198 0.7315048081075333 0  0.5239960393536925 0.7337405644965163 0  0.5002636188616746 0.7344272100552083 0  0.4765496938891871 0.7335700343481043 0  0.4530221049632338 0.7311673771465387 0  0.4298359310626088 0.7272231454176987 0  0.4071861435041922 0.7217282442383097 0  0.3853239885825902 0.7146867467517954 0  0.3645085375786806 0.7060653291226806 0  0.3451490387929087 0.6959387999466536 0  0.3277614562612018 0.6845386249668461 0  0.3130135737815475 0.6724226638245038 0  0.3762692438748115 0.3156719440448096 0  0.2823868204579002 0.4414373550701696 0  0.3760706014993752 0.6848905813637617 0  0.2821001964465083 0.5587210155408443 0  0.7169347727361923 0.5812917695797398 0  0.6034463321737892 0.693341839787004 0  0.623889134461538 0.3140900219635305 0  0.7208128277218455 0.4405651366663818 0  0.7240223391786987 0.5113744932727338 0  0.5578611915963406 0.2968497298174729 0  0.4432142449395719 0.299570707813858 0  0.4417966451687602 0.7012602375382757 0  0.5353652379879644 0.7049497379781848 0  0.2781474128282145 0.4882350849354881 0  0.2902261722078697 0.3969533585421929 0  0.4888604501958797 0.2979077634343939 0  0.2950713543758736 0.6018131160976249 0  0.705575835564938 0.3945910786347965 0  0.4886218276978793 0.7061288912389679 0  0.6452965791364016 0.6781753969322913 0  0.3367140557512379 0.3341066152679038 0  0.6649080506983516 0.3346294066396356 0  0.3368034155914854 0.6687817472400198 0  0.7023442579328855 0.6257547254425895 0  0.3047581796237236 0.3575352594717866 0  0.3059166607215938 0.6419658172187784 0  0.6817618266192637 0.6609672259486656 0  0.6974061380936579 0.3564314738921133 0  0.35577527664448 0.6771366027628707 0  0.3661568133410522 0.6581191542836687 0  0.387138913133881 0.6635473750925888 0  0.3759222059845264 0.6374721045212013 0  0.3983753371172682 0.6415038233594236 0  0.3856239011902004 0.613424971803081 0  0.4130155076256551 0.6166583366902806 0  0.397220400921642 0.5837427318278539 0  0.3589905562997965 0.6091328843240057 0  0.4309968124234475 0.5855678387503528 0  0.4111918274745684 0.5485087341487701 0  0.37151619708933 0.5529663949460111 0  0.3882292718026907 0.5143758362870785 0  0.3503400749732208 0.5162121253267046 0  0.3635684441356773 0.4820762230083552 0  0.4033287424887371 0.4765257824162583 0  0.3824813524524693 0.4442067961296661 0  0.4183661124430236 0.4379131637502849 0  0.3984764967306519 0.4073151557641848 0  0.4311208133783669 0.3937395058614386 0  0.3649176837301096 0.4105339351708086 0  0.4072274010838297 0.3733097396620361 0  0.4399301138845289 0.6205873607233809 0  0.4656791018066076 0.5947699819190999 0  0.484040305263249 0.6227346040503146 0  0.5026442388439623 0.5968515672296407 0  0.5203295030848468 0.6229723325387428 0  0.5387296839980824 0.596932837235038 0  0.5560422266125471 0.6226148798491926 0  0.5741936021465472 0.5968518385714252 0  0.5918140641028922 0.6241761275449653 0  0.6090149783957843 0.5894115191455699 0  0.5933185741225977 0
[...]
<PointData  Scalars="state"> 
<DataArray  type="Float64"  Name="state"  format="ascii">0.0000000000000000e+00  0.0000000000000000e+00  0.0000000000000000e+00  0.0000000000000000e+00  0.0000000000000000e+00  0.0000000000000000e+00  0.0000000000000000e+00  0.0000000000000000e+00  -3.1556632394562370e-02  -3.1518559448599499e-02  -3.1702819707646497e-02  -3.1721459566775100e-02  -6.9123057342725712e-03  0.0000000000000000e+00  0.0000000000000000e+00  0.0000000000000000e+00  0.0000000000000000e+00  0.0000000000000000e+00  0.0000000000000000e+00  0.0000000000000000e+00  0.0000000000000000e+00  0.0000000000000000e+00  0.0000000000000000e+00  0.0000000000000000e+00  0.0000000000000000e+00  0.0000000000000000e+00  0.0000000000000000e+00  0.0000000000000000e+00  0.0000000000000000e+00  0.0000000000000000e+00  0.0000000000000000e+00  0.0000000000000000e+00  0.0000000000000000e+00  0.0000000000000000e+00  0.0000000000000000e+00  0.0000000000000000e+00  0.0000000000000000e+00  0.0000000000000000e+00  0.0000000000000000e+00  0.0000000000000000e+00  0.0000000000000000e+00  0.0000000000000000e+00  0.0000000000000000e+00  0.0000000000000000e+00  0.0000000000000000e+00  0.0000000000000000e+00  0.0000000000000000e+00  0.0000000000000000e+00  0.0000000000000000e+00  0.0000000000000000e+00  0.0000000000000000e+00  0.0000000000000000e+00  0.0000000000000000e+00  0.0000000000000000e+00  0.0000000000000000e+00  0.0000000000000000e+00  0.0000000000000000e+00  0.0000000000000000e+00  0.0000000000000000e+00  0.0000000000000000e+00  0.0000000000000000e+00  0.0000000000000000e+00  0.0000000000000000e+00  0.0000000000000000e+00  0.0000000000000000e+00  0.0000000000000000e+00  0.0000000000000000e+00  0.0000000000000000e+00  0.0000000000000000e+00  0.0000000000000000e+00  0.0000000000000000e+00  0.0000000000000000e+00  0.0000000000000000e+00  0.0000000000000000e+00  0.0000000000000000e+00  0.0000000000000000e+00  0.0000000000000000e+00  0.0000000000000000e+00  0.0000000000000000e+00  0.0000000000000000e+00  0.0000000000000000e+00  0.0000000000000000e+00  0.0000000000000000e+00  0.0000000000000000e+00  0.0000000000000000e+00  0.0000000000000000e+00  0.0000000000000000e+00  0.0000000000000000e+00  0.0000000000000000e+00  0.0000000000000000e+00  0.0000000000000000e+00  0.0000000000000000e+00  0.0000000000000000e+00  0.0000000000000000e+00  0.0000000000000000e+00  0.0000000000000000e+00  0.0000000000000000e+00  0.0000000000000000e+00  0.0000000000000000e+00  0.0000000000000000e+00  0.0000000000000000e+00  0.0000000000000000e+00  0.0000000000000000e+00  0.0000000000000000e+00  0.0000000000000000e+00  0.0000000000000000e+00  0.0000000000000000e+00  0.0000000000000000e+00  0.0000000000000000e+00  0.0000000000000000e+00  0.0000000000000000e+00  0.0000000000000000e+00  0.0000000000000000e+00  0.0000000000000000e+00  0.0000000000000000e+00  0.0000000000000000e+00  0.0000000000000000e+00  0.0000000000000000e+00  0.0000000000000000e+00  0.0000000000000000e+00  0.0000000000000000e+00  0.0000000000000000e+00  0.0000000000000000e+00  0.0000000000000000e+00  0.0000000000000000e+00  0.0000000000000000e+00  0.0000000000000000e+00  0.0000000000000000e+00  0.0000000000000000e+00  0.0000000000000000e+00  0.0000000000000000e+00  0.0000000000000000e+00  0.0000000000000000e+00  0.0000000000000000e+00  0.0000000000000000e+00  0.0000000000000000e+00  0.0000000000000000e+00  0.0000000000000000e+00  0.0000000000000000e+00  0.0000000000000000e+00  0.0000000000000000e+00  0.0000000000000000e+00  0.0000000000000000e+00  0.0000000000000000e+00  0.0000000000000000e+00  0.0000000000000000e+00  0.0000000000000000e+00  0.0000000000000000e+00  0.0000000000000000e+00  0.0000000000000000e+00  0.0000000000000000e+00  0.0000000000000000e+00  0.0000000000000000e+00  0.0000000000000000e+00  0.0000000000000000e+00  0.0000000000000000e+00  0.0000000000000000e+00  0.0000000000000000e+00  0.0000000000000000e+00  0.0000000000000000e+00  0.0000000000000000e+00  0.0000000000000000e+00  0.0000000000000000e+00  0.0000000000000000e+00  0.0000000000000000e+00  0.0000000000000000e+00  0.0000000000000000e+00  0.0000000000000000e+00  0.0000000000000000e+00  0.0000000000000000e+00  0.0000000000000000e+00  0.0000000000000000e+00  0.0000000000000000e+00  0.0000000000000000e+00  0.0000000000000000e+00  0.0000000000000000e+00  0.0000000000000000e+00  0.0000000000000000e+00  0.0000000000000000e+00  0.0000000000000000e+00  0.0000000000000000e+00  -3.0716141383089743e-02  -3.0139299741117141e-02  -2.9443227940674697e-02  -2.8726248196449089e-02  -2.8115980156676216e-02  -2.7650032778324132e-02  -2.7315250914575324e-02  -2.7318261422605100e-02  -2.7372973119799398e-02  -2.7700095809738024e-02  -2.8177573341869683e-02  -2.8753625718868015e-02  -2.9349882459103072e-02  -3.0004551165261798e-02  -3.0590829842586598e-02  -3.1033247593734471e-02  -3.0633480458942951e-02  -3.0187711676283847e-02  -2.9718438685727658e-02  -2.9263439311203749e-02  -2.8748330947700129e-02  -2.8289184535508258e-02  -2.7990733647995997e-02  -2.7742746179004782e-02  -2.7675497931870779e-02  -2.7746451618152378e-02  -2.7973782175088727e-02  -2.8336976941491621e-02  -2.8767547947881500e-02  -2.9356720861523494e-02  -2.9914621705727999e-02  -3.0376241767526006e-02  -3.0824081737288216e-02  -3.1208265923592323e-02  -3.0937249700007781e-02  -3.0252950495736324e-02  -2.9554002887504795e-02  -2.8812469759866947e-02  -2.8198041473848294e-02  -2.7720688741110510e-02  -2.7443805569349312e-02  -2.7323546566848912e-02  -2.7429936194505216e-02  -2.7785065086557086e-02  -2.8258915907333333e-02  -2.8833188744143038e-02  -2.9599755471681078e-02  -3.0309296254130969e-02  -3.0989714083445554e-02  -3.1193274811664121e-02  -3.0800163410743053e-02  -3.0404342659842924e-02  -2.9917488801338411e-02  -2.9347960557073480e-02  -2.8736338359863955e-02  -2.8306255969283524e-02  -2.7904089527522664e-02  -2.7657210326277160e-02  -2.7607580708272933e-02  -2.7707560066093997e-02  -2.7922476649670309e-02  -2.8182897807861047e-02  -2.8658888334476908e-02  -2.9198199173110572e-02  -2.9681704986081484e-02  -3.0195186044276550e-02  -3.0661499492486748e-02  -3.1054240323134679e-02  -2.4273454257107377e-02  -2.3158226285941292e-02  -2.4257924660377662e-02  -2.3151377673132304e-02  -2.4227626769578528e-02  -2.3772453091749197e-02  -2.4413320443328276e-02  -2.3426095562527428e-02  -2.2588257206725207e-02  -2.2725806259973405e-02  -2.2329053173390689e-02  -2.2336709022848185e-02  -2.2115071693321008e-02  -2.2488680484711757e-02  -2.4970202600145177e-02  -2.1367298431720010e-02  -2.4035824781414437e-02  -2.4354157495522447e-02  -2.1894916696013039e-02  -2.5321177501126824e-02  -2.5863714238357344e-02  -2.5764810134627471e-02  -2.6151666418971313e-02  -2.5972902649572416e-02  -2.7194914878522016e-02  -2.6686043571301755e-02  -2.7516555206461946e-02  -2.7416574271582120e-02  -2.5133675053069449e-02  -2.1827149049674227e-02  -2.0748776039280253e-02  -1.9008876002218206e-02  -1.7782707466257659e-02  -1.6215312364333472e-02  -1.4712923606776609e-02  -1.3273763922507896e-02  -1.7951614536582301e-02  -1.1441786755120141e-02  -1.0518023529690421e-02  -1.3565290432351499e-02  -1.1202356081100559e-02  -1.4512203868777324e-02  -1.3339307950673328e-02  -1.0314584041742521e-02  -1.2789894677266656e-02  -1.0726188283244228e-02  -1.3832825508618612e-02  -1.3012337667036184e-02  -1.6189924094730055e-02  -1.6110099731622331e-02  -1.3752844756281702e-02  -1.0872302608264404e-02  -1.2897756705717451e-02  -1.0670646173048328e-02  -1.3017560731920627e-02  -1.1182686097443245e-02  -1.3848626061143714e-02  -1.2464953182592706e-02  -1.5573989409724678e-02  -1.3956096733361924e-02  -1.1045899739156016e-02  -1.3562450380437520e-02  -1.1133400379311244e-02  -1.6468570596909263e-02  -1.6735002915446794e-02  -1.7412239813087382e-02  -1.6700910571499521e-02  -1.6602019288917250e-02  -1.7817498304410647e-02  -1.5421272806833643e-02  -1.2601528416395395e-02  -1.9831210038850834e-02  -1.8149404687551010e-02  -1.6223498978425913e-02  -1.6979197282807508e-02  -1.5725534726895168e-02  -1.2164611026619037e-02  -1.6035278545565596e-02  -1.3063775960300145e-02  -9.7486910853233459e-03  -1.1688948141362659e-02  -1.4524961193565616e-02  -1.4048317936779625e-02  -1.0467432262733325e-02  -1.3620014051682842e-02  -1.6419212779009779e-02  -1.6506033185806211e-02  -1.4679106869399645e-02  -1.8871281662003764e-02  -1.9422033609213536e-02  -2.1358533965989988e-02  -2.1420631752700911e-02  -9.0269235202895676e-03  -1.9484037614451621e-02  -1.9370314958146395e-02  -1.9896059439786840e-02  -1.8043278707421440e-02  -2.1672834351825924e-02  -2.2032921392618084e-02  -2.0461533128364993e-02  -1.6359769242811437e-02  -1.8960122723890586e-02  -2.0711158558375745e-02  -1.8091646771921387e-02  -1.6070475008889151e-02  -1.8515173555773940e-02  -1.9170213607022091e-02  -1.6378271597056439e-02  -1.8679336213460889e-02  -2.0957750192608690e-02  -2.1533208732681032e-02  -2.0279324784611155e-02  -2.0002502713929636e-02  -1.8972725392797953e-02  -2.1141138984503299e-02  -1.6792046099210416e-02  -8.4383307103521963e-03  -2.1092377841897828e-02  -8.4822731482036666e-03  -1.4290996737818451e-02  -1.7462031223999742e-02  -1.4826219104204319e-02  -1.7618631017559113e-02  -1.9843791831260886e-02  -2.0402773609551096e-02  -1.8760775849405442e-02  -1.6965185977204103e-02  -1.8648510555591774e-02  -1.9137315907552955e-02  -1.0092966473973577e-02  -2.3305054163384794e-02  -2.3680361107571241e-02  -1.7352683060279525e-02  -1.9822054601901066e-02  -1.9299900305296634e-02  -1.7572682798334596e-02  -1.8476578903947702e-02  -2.0984111004068003e-02  -1.9222005674520284e-02  -2.0972643322521259e-02  -2.1314679953345048e-02  -2.2839981912755387e-02  -2.4451408718782239e-02  -2.5001278202137829e-02  -1.9788392738574634e-02  -2.1916814663555082e-02  -2.2134713733841328e-02  -2.2764152309569487e-02  -2.4797243455773867e-02  -2.5829685118974644e-02  -2.2812179261835944e-02  -1.9249754981537762e-02  -1.6888146113333453e-02  -2.4315039764065908e-02  -2.3472386309462575e-02  -2.2324473473991833e-02  -2.5354278927405837e-02  -2.2074162485472709e-02  -2.1918376961454909e-02  -2.3704194532655362e-02  -2.5809282293747824e-02  -2.2957426511778529e-02  -2.2095223943439452e-02  -2.3853662353299519e-02  -2.1002743980920426e-02  -2.3082654540759008e-02  -2.0409426008310520e-02  -2.2611626067246652e-02  -2.4661322890716018e-02  -2.6282696043590979e-02  -2.4768834144502153e-02  -2.1431955478788543e-02  -1.8031951398407069e-02  -2.3230892789655486e-02  -2.3694067125865064e-02  -2.1729774610929304e-02  -2.7348683681931014e-02  -2.7359588997318034e-02  -2.7429939954130709e-02  -2.7481008603036976e-02  -2.3077448495908651e-02  -9.6966840475000565e-03  -7.9710919972196433e-03  -1.9663445193722436e-02  -2.3747277592869986e-02  -2.4152633769452266e-02  -2.3109040600011014e-02  -2.6113856551832813e-02  -2.2434782428564178e-02  -2.2255596626829455e-02  -1.8509669738109507e-02  -1.7583803250375563e-02  -2.2129624747347646e-02  -1.7163959257666696e-02  -8.7919351845686285e-03  -8.8774766339794683e-03  -1.2202016458520466e-02  -2.0379472664526020e-02  -2.2214566920108102e-02  -1.8872446364935194e-02  -2.0163551342143572e-02  -1.8908654067273201e-02  -2.3027471261570572e-02  -2.2887366367860363e-02  -9.2454456551554366e-03  -2.3620272286203229e-02  -1.9337628997611364e-02  -2.0370685282486679e-02  -1.6223919513173122e-02  -2.2110437697694940e-02  -1.6412107301530511e-02  -1.2155200845816947e-02  -2.3339081175997985e-02  -7.6413519538460197e-03  -1.5466554231866053e-02  -2.5325539613044540e-02  -1.6816616196794535e-02  -1.9207604166535042e-02  -1.9779394962719469e-02  -9.5184490227179352e-03  -2.3239693862205840e-02  -2.1160366811289810e-02  -1.9028169663436918e-02  -7.3849573804986605e-03  -2.0555515346963982e-02  -1.9355712535297519e-02  -7.9533094939953537e-03  -1.5947831625115250e-02  -1.8867568606502877e-02  -7.4388757706853256e-03  -1.6230401104477162e-02  -2.1151558273531951e-02  -2.1750984528868599e-02  -1.8363426986915458e-02  -1.5303714847390995e-02  -1.9330736824289402e-02  -2.3720546893137934e-02  -1.6678814309501376e-02  -2.8679316530004228e-02  -2.8782257167175290e-02  -2.8667398394565925e-02  -2.8849222472530842e-02  -2.1259101523261392e-02  -2.3614814229512511e-02  -2.1065832492029667e-02  -2.2652055288547079e-02  -1.9707308329262128e-02  -1.5253725804236624e-02  -2.3042813200971030e-02  -2.1936740719795404e-02  -1.8422324850239931e-02  -1.4317287502683317e-02  -1.5608313970853761e-02  -1.3946461262816359e-02  -2.1717141282135394e-02  -1.4275720943510416e-02  -1.9521476845005950e-02  -1.3813897491228539e-02  -7.5674730446199665e-03  -1.8918128493767204e-02  -1.6135479186139178e-02  -1.7839628665942416e-02  -1.9189448673057528e-02  -1.5291467821419567e-02  -1.4424314509653306e-02  -8.6879463333288161e-03  -2.4436285852211942e-02  -3.1730574166656179e-02  -3.2122019835950519e-02  -3.4116628249220474e-02  -3.6671260933601887e-02  -3.4098419888576065e-02  -3.7280861347724320e-02  -3.2053830917605809e-02  -3.3771904989864550e-02  -3.2007903843244208e-02  -3.3854615954198752e-02  -3.6806242346417876e-02  -3.6571103092465536e-02  -1.6967456245727160e-02  -1.5101145622046223e-02  -1.8239130066577292e-02  -1.5732401199764982e-02  -3.2065112594312051e-02  -3.5787853102401859e-02  -3.5949322702236483e-02  -3.2079889174909615e-02  -4.0743198732408899e-02  -4.5855378499867108e-02  -3.2704014752970578e-02  -3.2574853578785888e-02  -3.7617936221544294e-02  -4.7168198999374113e-02  -4.9630734268795280e-02  -4.9423742681581895e-02  -5.1168550805400163e-02  -5.1365237199752604e-02  -1.7727561969877657e-02  -1.7209104978412555e-02  -1.7728058780204774e-02  -1.7205835372601140e-02  -1.7302590573099252e-02  -1.6847217523289014e-02  -1.7894913981308790e-02  -5.1144088560331362e-02  -5.1537959961512926e-02  -4.9383578290185179e-02  -4.7688432960781908e-02  -1.8939053895821765e-02  -1.8284120154664817e-02  -1.7533673864200842e-02  -1.7085738941425635e-02  -1.8529389723050595e-02  -1.7426563789974758e-02  -2.0092258217901129e-02  -1.6081600772865939e-02  -4.7787483709239929e-02  -4.6682590901584581e-02  -1.8038871260004183e-02  -1.6200745272126355e-02  -1.8066245155780831e-02  -4.1139726422651617e-02  -4.5658754968838595e-02  -4.8064558386610709e-02  -5.0091956092497412e-02  -5.1074403130271367e-02  -5.1270325048328812e-02  -5.0528202201170706e-02  -5.1115459715694381e-02  -5.1175118337176785e-02  -4.9547448475107177e-02  -4.1069518784246174e-02  -4.5894629184621165e-02  -4.8093931519275428e-02  -5.0119648788991424e-02  -4.8819678347825524e-02  -5.1134767013147391e-02  -5.1342771260827785e-02  -5.1332912444505982e-02  -5.1307560713220006e-02  -4.9898740274665898e-02  -3.4106382819521455e-02  -4.0808053504331684e-02  -4.5921695568793788e-02  -4.7266734466302980e-02  -4.9808364255118275e-02  -4.9576508789744470e-02  -5.1345732855712936e-02  -5.1552751898469550e-02  -5.1395050096215200e-02  -5.1581062938298367e-02  -3.1398544052757826e-02  -3.1795131380661305e-02  -3.3418174459256440e-02  -3.3477757218210655e-02  -5.0519960010003778e-02  -4.9873199063898581e-02  -4.9912111884549318e-02  -4.9637091567039222e-02  -4.9612568870680246e-02  -5.0051151230096590e-02  -1.7990777494770460e-02  -4.9366591028160933e-02  -5.1235061198112490e-02  -4.9346270261563317e-02  -4.9092976808803687e-02  -5.0664585257618751e-02  -5.0126859524481773e-02  -3.4098764314320226e-02  -4.6106269581230590e-02  -4.6081947846020599e-02  -1.4774351730553048e-02  -1.3773478791741116e-02  -1.4787446810919610e-02  -4.5210007520964789e-02  -4.6055501811641607e-02  -4.3913056480810016e-02  -4.3194773764040927e-02  -4.7910145004001377e-02  -4.9629118876984395e-02  -4.7483594252004553e-02  -4.9116871437590602e-02  -4.6156977869614722e-02  -4.9039010542747161e-02  -4.5580140370958526e-02  -4.8021854307043269e-02  -4.4581623804364992e-02  -4.6306353927680739e-02  -4.6171727535027123e-02  -4.8904473366783316e-02  -4.5482968153544100e-02  -4.7671854257329033e-02  -4.4437154186570654e-02  -4.6328915282545395e-02  -4.3348357908586689e-02  -4.5206709349294646e-02  -4.2504909576110195e-02  -4.4444252060316568e-02  -4.1907914838038907e-02  -4.4096508764276218e-02  -4.1627436885341651e-02  -4.4222648995154594e-02  -4.3323597614555003e-02  -4.5083864676051230e-02  -4.2380719600166941e-02  -4.4277685854897386e-02  -4.1738560533549608e-02  -4.3912082527239452e-02  -4.1410050396285057e-02  -4.4049244092056031e-02  -4.5491537453697786e-02  -4.5242637448311834e-02  -4.8934358150400009e-02  -4.8770533111592650e-02  -4.5187337312339600e-02  -4.4672043267171176e-02  -4.1992233839447557e-02  -4.4842538203176997e-02  -4.2557427490900336e-02  -4.5754912904139855e-02  -4.3184851102368006e-02  -4.1752856271745006e-02  -4.4627626989846639e-02  -4.2231235297742323e-02  -4.5487995378634245e-02  -4.2810481470219180e-02  -4.9712051041237569e-02  -4.6484546918053329e-02  -4.5631148020738165e-02  -4.5031767483762204e-02  -4.6252424504349257e-02  -4.5161088262581826e-02  -4.6416573682019235e-02  -4.3420116616038645e-02  -3.9684623764594931e-02  -4.3661135969901059e-02  -3.9724839248447122e-02  -4.4017083451794690e-02  -3.6463718265881538e-02  -4.4158074743119169e-02  -4.4887419455024488e-02  -4.1069307307938813e-02  -3.9607014800855704e-02  -3.6282397235112278e-02  -4.4713680693417079e-02  -4.0132153634241552e-02  -4.6344316869531589e-02  -3.8998407957593385e-02  -4.6453816362334518e-02  -3.7516506790342345e-02  -3.7680539912076524e-02  -3.6758100871734402e-02  -4.2740091628063089e-02  -3.8364073585471656e-02  -4.2676757802520400e-02  -3.0640350909376848e-02  -5.0101806925620072e-02  -1.1695140859779579e-02  -4.5435992540318521e-02  -5.0121380354229202e-02  -3.8171775049283180e-02  -3.6550157034355671e-02  -4.1203501479478627e-02  -3.8152894774911822e-02  -4.5535008241689615e-02  -4.5511060759605794e-02  -4.4474235961524208e-02  -4.7826418453468196e-02  -4.6001058863452730e-02  -4.6901552800602181e-02  -4.5405766374165851e-02  -4.3583221151065589e-02  -4.2531249472711904e-02  -4.5553793113726850e-02  -4.3834085372681166e-02  -4.1501660247782887e-02  -4.2256612886889637e-02  -4.0563574461077258e-02  -4.1333737367627320e-02  -4.0169537897295667e-02  -4.0833457227838557e-02  -4.0344432522546249e-02  -4.0930204116875264e-02  -3.7666391507408914e-02  -4.2284300069736352e-02  -4.2888502134800728e-02  -4.1794130834756853e-02  -3.0984654691009639e-02  -4.0640382089161223e-02  -3.7689344029928872e-02  -3.8503341450094208e-02  -3.6043137532684899e-02  -1.0666578998070157e-02  -1.2437347829839740e-02  -1.1772700777839583e-02  -4.4762469054201115e-02  -3.8769284361523604e-02  -4.8451999975357755e-02  -4.3339302557595764e-02  -4.6377659465737943e-02  -3.2463267540819220e-02  -3.3194543826065848e-02  -3.4059009782200833e-02  -3.9470036172251650e-02  -4.2907975040785820e-02  -4.5891314995876252e-02  -4.4183113040873259e-02  -3.9484564705522668e-02  -4.1974918474928277e-02  -4.2592655783032569e-02  -4.1849840446309565e-02  -4.0006866981260325e-02  -4.1116992244797541e-02  -3.7666754405661293e-02  -4.0230731497874747e-02  -4.0651135822618624e-02  -4.1097781732428347e-02  -3.9236040031294141e-02  -4.1637571178578539e-02  -3.8095131529626083e-02  -4.1785622082211600e-02  -4.2282054403955445e-02  -4.3696530424780111e-02  -4.1718083715690926e-02  -4.5165940367329196e-02  -4.1064422986754251e-02  -4.6092828505144269e-02  -3.9493821441581874e-02  -4.4593656448682302e-02  -4.2792682061197698e-02  -4.4598184677534111e-02  -4.2028432306764299e-02  -4.9101570199816334e-02  -4.7537351446175040e-02  -3.6769216244066844e-02  -3.4149975798435310e-02  -4.2805002501765388e-02  -4.2048023706852622e-02  -4.7529352357524091e-02  -3.9786229924101454e-02  -4.7727902749723633e-02  -3.5912372794695030e-02  -3.8903419238417246e-02  -4.1149686509939429e-02  -4.6618037903866177e-02  -3.5080255915325521e-02  -4.1764403241337913e-02  -3.9088558791136291e-02  -3.6890562798512681e-02  -3.6977300900799079e-02  -3.8877891685778154e-02  -4.1954594087071792e-02  -3.7326526438481493e-02  -4.0399477588553848e-02  -3.94061481804