<?xml version="1.0"?>
<VTKFile type="UnstructuredGrid"  version="0.1"  >
<UnstructuredGrid>
<Piece  NumberOfPoints="1297" NumberOfCells="2496">
<Points>
<DataArray  type="Float64"  NumberOfComponents="3"  format="ascii">0 0 0  0 1 0  1 1 0  1 0 0  1.1 -0.1 0  -0.1 -0.1 0  1.1 1.1 0  -0.1 1.1 0  0.2950338631976249 0.665072316165174 0  0.2957797883779577 0.3354413273031011 0  0.7058365432941401 0.3344709682393033 0  0.7058327272013843 0.6657673515873525 0  0.5004887856600335 0.5001702804739957 0  0 0.9499999999997918 0  0 0.8999999999995836 0  0 0.8499999999996529 0  0 0.7999999999999998 0  0 0.7500000000003466 0  0 0.7000000000006934 0  0 0.6500000000010401 0  0 0.6000000000013869 0  0 0.5500000000017335 0  0 0.5000000000020587 0  0 0.4500000000018723 0  0 0.4000000000016644 0  0 0.3500000000014564 0  0 0.3000000000012483 0  0 0.2500000000010403 0  0 0.2000000000008322 0  0 0.1500000000006241 0  0 0.100000000000416 0  0 0.05000000000020799 0  0.04999999999989965 0 0  0.09999999999981467 0 0  0.1499999999997036 0 0  0.1999999999995579 0 0  0.2499999999994121 0 0  0.2999999999992664 0 0  0.3499999999991206 0 0  0.3999999999989749 0 0  0.4499999999988292 0 0  0.4999999999986943 0 0  0.5499999999988151 0 0  0.5999999999989468 0 0  0.6499999999990784 0 0  0.69999999999921 0 0  0.7499999999993417 0 0  0.7999999999994734 0 0  0.8499999999996051 0 0  0.8999999999997368 0 0  0.9499999999998684 0 0  1 0.04999999999989965 0  1 0.09999999999981467 0  1 0.1499999999997036 0  1 0.1999999999995579 0  1 0.2499999999994121 0  1 0.2999999999992664 0  1 0.3499999999991206 0  1 0.3999999999989749 0  1 0.4499999999988292 0  1 0.4999999999986943 0  1 0.5499999999988151 0  1 0.5999999999989468 0  1 0.6499999999990784 0  1 0.69999999999921 0  1 0.7499999999993417 0  1 0.7999999999994734 0  1 0.8499999999996051 0  1 0.8999999999997368 0  1 0.9499999999998684 0  0.9499999999997918 1 0  0.8999999999995836 1 0  0.8499999999996529 1 0  0.7999999999999998 1 0  0.7500000000003466 1 0  0.7000000000006934 1 0  0.6500000000010401 1 0  0.6000000000013869 1 0  0.5500000000017335 1 0  0.5000000000020587 1 0  0.4500000000018723 1 0  0.4000000000016644 1 0  0.3500000000014564 1 0  0.3000000000012483 1 0  0.2500000000010403 1 0  0.2000000000008322 1 0  0.1500000000006241 1 0  0.100000000000416 1 0  0.05000000000020799 1 0  -0.1 1.05000000000004 0  -0.1 1.000000000000079 0  -0.1 0.9500000000001624 0  -0.1 0.9000000000003032 0  -0.1 0.850000000000444 0  -0.1 0.8000000000005848 0  -0.1 0.7500000000007256 0  -0.1 0.7000000000008665 0  -0.1 0.6500000000010508 0  -0.1 0.6000000000012352 0  -0.1 0.5500000000014196 0  -0.1 0.500000000001539 0  -0.1 0.4500000000014195 0  -0.1 0.4000000000013 0  -0.1 0.3500000000011588 0  -0.1 0.3000000000010178 0  -0.1 0.2500000000008986 0  -0.1 0.2000000000007579 0  -0.1 0.1500000000006174 0  -0.1 0.1000000000005272 0  -0.1 0.05000000000040083 0  -0.1 2.671196597248127e-13 0  -0.1 -0.0499999999998666 0  -0.0500000000000906 -0.1 0  -1.730560139634463e-13 -0.1 0  0.04999999999975802 -0.1 0  0.09999999999961506 -0.1 0  0.1499999999994613 -0.1 0  0.199999999999302 -0.1 0  0.2499999999991446 -0.1 0  0.2999999999990088 -0.1 0  0.3499999999988296 -0.1 0  0.3999999999986936 -0.1 0  0.4499999999985143 -0.1 0  0.4999999999984002 -0.1 0  0.5499999999985247 -0.1 0  0.5999999999986493 -0.1 0  0.6499999999987955 -0.1 0  0.6999999999989417 -0.1 0  0.7499999999990659 -0.1 0  0.7999999999992116 -0.1 0  0.8499999999993573 -0.1 0  0.8999999999994526 -0.1 0  0.949999999999584 -0.1 0  0.9999999999997226 -0.1 0  1.049999999999861 -0.1 0  1.1 -0.0500000000000906 0  1.1 -1.730560139634463e-13 0  1.1 0.04999999999975802 0  1.1 0.09999999999961506 0  1.1 0.1499999999994613 0  1.1 0.199999999999302 0  1.1 0.2499999999991446 0  1.1 0.2999999999990088 0  1.1 0.3499999999988296 0  1.1 0.3999999999986936 0  1.1 0.4499999999985143 0  1.1 0.4999999999984002 0  1.1 0.5499999999985247 0  1.1 0.5999999999986493 0  1.1 0.6499999999987955 0  1.1 0.6999999999989417 0  1.1 0.7499999999990659 0  1.1 0.7999999999992116 0  1.1 0.8499999999993573 0  1.1 0.8999999999994526 0  1.1 0.949999999999584 0  1.1 0.9999999999997226 0  1.1 1.049999999999861 0  1.05000000000004 1.1 0  1.000000000000079 1.1 0  0.9500000000001624 1.1 0  0.9000000000003032 1.1 0  0.850000000000444 1.1 0  0.8000000000005848 1.1 0  0.7500000000007256 1.1 0  0.7000000000008665 1.1 0  0.6500000000010508 1.1 0  0.6000000000012352 1.1 0  0.5500000000014196 1.1 0  0.500000000001539 1.1 0  0.4500000000014195 1.1 0  0.4000000000013 1.1 0  0.3500000000011588 1.1 0  0.3000000000010178 1.1 0  0.2500000000008986 1.1 0  0.2000000000007579 1.1 0  0.1500000000006174 1.1 0  0.1000000000005272 1.1 0  0.05000000000040083 1.1 0  2.671196597248127e-13 1.1 0  -0.0499999999998666 1.1 0  0.2855119733047564 0.6521932651664092 0  0.2763117701743193 0.634753276379059 0  0.2687257326974273 0.6148540881925252 0  0.2628563571038972 0.5932404306658889 0  0.2585357345514122 0.5706366440904774 0  0.2555890718483875 0.54739788340526 0  0.2538919894765977 0.5237946473462097 0  0.2533774187627504 0.5000652719172763 0  0.2540158016415198 0.4763049804910404 0  0.2558352775022703 0.4527054447409419 0  0.2589199216014694 0.4295016838393839 0  0.26337478131759 0.4069420750369857 0  0.2693812550339844 0.3854009817943126 0  0.2770745210211489 0.3655410432246948 0  0.2863346864444311 0.3482071311643045 0  0.3075260442839301 0.3246937375110922 0  0.3234388716963085 0.3138821499248003 0  0.3420664818528685 0.3042864297447367 0  0.3624732042161529 0.2961377943590129 0  0.3840938701108453 0.289405740997848 0  0.4065375992745648 0.2839985464537286 0  0.4295338984491148 0.2798371714881245 0  0.4529230920324437 0.2768536520074715 0  0.4765569701967007 0.2750315536175251 0  0.5003090157638218 0.2743614513866388 0  0.524075304846282 0.2748409772509677 0  0.5477374723723478 0.2764733898519396 0  0.5711854344620608 0.2792807316591489 0  0.5942442736239675 0.2832910338240379 0  0.6167649583823975 0.2885610203001222 0  0.6385049487713447 0.2951696208824808 0  0.6590669451920799 0.3032439559001887 0  0.6778795935985482 0.3128131599978941 0  0.6939177446438881 0.3236332622612412 0  0.7154467638829177 0.3475096441980957 0  0.7246815715335955 0.3648849931766014 0  0.7323620214022734 0.3849230357932162 0  0.7383268965562859 0.4066420582700065 0  0.7427281836615781 0.4293328586927499 0  0.7457439229779831 0.4526260749745025 0  0.747506847140981 0.4762768460662993 0  0.7480913282086988 0.5000987325465769 0  0.7475191587990472 0.5239287350474948 0  0.7457644214388145 0.5476117793864268 0  0.7427637260791858 0.5709100745914166 0  0.7383521575701633 0.5936049801177142 0  0.7324019626358352 0.6152846648303147 0  0.7247251604103834 0.6353275256684821 0  0.7154799590232614 0.6527058283452598 0  0.6939145008519156 0.6766306205897905 0  0.6778541346736731 0.6874901174944623 0  0.6590742103340937 0.6970958790936458 0  0.6385248799069624 0.7051843920166978 0  0.6167947365832653 0.7118178862592084 0  0.5942675512909497 0.7171097788582632 0  0.5711795817428078 0.7211474031480842 0  0.5477187535354582 0.7239710504694804 0  0.524038656207603 0.7256190953794536 0  0.5002544203647128 0.7261130436061046 0  0.4764823777396175 0.7254604359846409 0  0.4528382363398658 0.7236570668207352 0  0.4294255761476538 0.7206987615522564 0  0.4063877595520639 0.7165509312147088 0  0.3839039419702186 0.7111745316995576 0  0.3622027496224818 0.7044617424626328 0  0.3416785261915942 0.6963184476544383 0  0.3229281702418377 0.686712596459196 0  0.3068802270506229 0.6758744069974744 0  0.3740102190765657 0.3172879903437159 0  0.2805866944243163 0.4409258347654945 0  0.3738006563391995 0.683215551245131 0  0.2803117927450111 0.5592506543279634 0  0.7194608749922237 0.5821370869079834 0  0.604888676259535 0.6901375372205594 0  0.6260373322344664 0.3158836302749722 0  0.722473084029522 0.44004920266264 0  0.7246872137668129 0.5114480836650351 0  0.5584007907967621 0.3023256943266843 0  0.4426492171966838 0.3048687589005283 0  0.4411926912602478 0.6959467026228074 0  0.5356349792007936 0.6989014740083273 0  0.2773572055561525 0.4881672126481395 0  0.2864317551671051 0.3955317000116423 0  0.4887695001544325 0.3040297539633374 0  0.2914030892700726 0.6031376469785108 0  0.7092828080565174 0.3932048267544771 0  0.4885118387499078 0.6997560523548655 0  0.6483926625130902 0.6779723544851669 0  0.3324189597353203 0.3327319839369626 0  0.6691054549187981 0.3333152929825922 0  0.3325496365664198 0.6700715980551497 0  0.707076846086284 0.6277557316774582 0  0.2990887595892439 0.3548307388020802 0  0.3003586759830859 0.6445592176769127 0  0.686990933315956 0.6633914190569804 0  0.702993059895147 0.3537435062934215 0  0.3525784682251995 0.6769925125261816 0  0.3633598772619373 0.6575768436012419 0  0.3850551838346985 0.6618740789723181 0  0.3735044171542955 0.6367485567738206 0  0.3965543117990917 0.639904241623354 0  0.3836134154063012 0.612640735879072 0  0.4115542505649852 0.6151679995227891 0  0.3956191807186218 0.5830421790143703 0  0.3564009717649146 0.6091183696306981 0  0.4299238453113827 0.5843613774599627 0  0.409954042693981 0.5480226619530424 0  0.369807488759458 0.552801757895261 0  0.3868576980129855 0.5142858133501687 0  0.3487531327882546 0.5162168627377514 0  0.3620307934356818 0.4821092920405081 0  0.4020800911372571 0.4767190413435213 0  0.3808733086515221 0.4444879946342946 0  0.4171824020427293 0.4386066158346602 0  0.3968527087205502 0.4081284067440591 0  0.4300181219645389 0.3953325847868271 0  0.3627336477964431 0.4106741613129736 0  0.4056411576231262 0.3748467217008274 0  0.4389536803833949 0.6184983026898737 0  0.4651252646374481 0.5930446673244342 0  0.4837612481066816 0.6201355202540809 0  0.5026360427202432 0.5949553092691274 0  0.5205841084503777 0.6203718092701197 0  0.5392534505184902 0.5951718034076318 0  0.5568524242528295 0.6203846759355173 0  0.5752666741688655 0.5954733289719446 0  0.5932770512464901 0.6226081572212143 0  0.6106293526263524 0.5887065060266383 0  0.594527935
[...]
<PointData  Scalars="state"> 
<DataArray  type="Float64"  Name="state"  format="ascii">0.0000000000000000e+00  0.0000000000000000e+00  0.0000000000000000e+00  0.0000000000000000e+00  0.0000000000000000e+00  0.0000000000000000e+00  0.0000000000000000e+00  0.0000000000000000e+00  -3.2471064665792616e-02  -3.2430747790955505e-02  -3.2639135145340128e-02  -3.2649950536872932e-02  -6.9438203395585244e-03  0.0000000000000000e+00  0.0000000000000000e+00  0.0000000000000000e+00  0.0000000000000000e+00  0.0000000000000000e+00  0.0000000000000000e+00  0.0000000000000000e+00  0.0000000000000000e+00  0.0000000000000000e+00  0.0000000000000000e+00  0.0000000000000000e+00  0.0000000000000000e+00  0.0000000000000000e+00  0.0000000000000000e+00  0.0000000000000000e+00  0.0000000000000000e+00  0.0000000000000000e+00  0.0000000000000000e+00  0.0000000000000000e+00  0.0000000000000000e+00  0.0000000000000000e+00  0.0000000000000000e+00  0.0000000000000000e+00  0.0000000000000000e+00  0.0000000000000000e+00  0.0000000000000000e+00  0.0000000000000000e+00  0.0000000000000000e+00  0.0000000000000000e+00  0.0000000000000000e+00  0.0000000000000000e+00  0.0000000000000000e+00  0.0000000000000000e+00  0.0000000000000000e+00  0.0000000000000000e+00  0.0000000000000000e+00  0.0000000000000000e+00  0.0000000000000000e+00  0.0000000000000000e+00  0.0000000000000000e+00  0.0000000000000000e+00  0.0000000000000000e+00  0.0000000000000000e+00  0.0000000000000000e+00  0.0000000000000000e+00  0.0000000000000000e+00  0.0000000000000000e+00  0.0000000000000000e+00  0.0000000000000000e+00  0.0000000000000000e+00  0.0000000000000000e+00  0.0000000000000000e+00  0.0000000000000000e+00  0.0000000000000000e+00  0.0000000000000000e+00  0.0000000000000000e+00  0.0000000000000000e+00  0.0000000000000000e+00  0.0000000000000000e+00  0.0000000000000000e+00  0.0000000000000000e+00  0.0000000000000000e+00  0.0000000000000000e+00  0.0000000000000000e+00  0.0000000000000000e+00  0.0000000000000000e+00  0.0000000000000000e+00  0.0000000000000000e+00  0.0000000000000000e+00  0.0000000000000000e+00  0.0000000000000000e+00  0.0000000000000000e+00  0.0000000000000000e+00  0.0000000000000000e+00  0.0000000000000000e+00  0.0000000000000000e+00  0.0000000000000000e+00  0.0000000000000000e+00  0.0000000000000000e+00  0.0000000000000000e+00  0.0000000000000000e+00  0.0000000000000000e+00  0.0000000000000000e+00  0.0000000000000000e+00  0.0000000000000000e+00  0.0000000000000000e+00  0.0000000000000000e+00  0.0000000000000000e+00  0.0000000000000000e+00  0.0000000000000000e+00  0.0000000000000000e+00  0.0000000000000000e+00  0.0000000000000000e+00  0.0000000000000000e+00  0.0000000000000000e+00  0.0000000000000000e+00  0.0000000000000000e+00  0.0000000000000000e+00  0.0000000000000000e+00  0.0000000000000000e+00  0.0000000000000000e+00  0.0000000000000000e+00  0.0000000000000000e+00  0.0000000000000000e+00  0.0000000000000000e+00  0.0000000000000000e+00  0.0000000000000000e+00  0.0000000000000000e+00  0.0000000000000000e+00  0.0000000000000000e+00  0.0000000000000000e+00  0.0000000000000000e+00  0.0000000000000000e+00  0.0000000000000000e+00  0.0000000000000000e+00  0.0000000000000000e+00  0.0000000000000000e+00  0.0000000000000000e+00  0.0000000000000000e+00  0.0000000000000000e+00  0.0000000000000000e+00  0.0000000000000000e+00  0.0000000000000000e+00  0.0000000000000000e+00  0.0000000000000000e+00  0.0000000000000000e+00  0.0000000000000000e+00  0.0000000000000000e+00  0.0000000000000000e+00  0.0000000000000000e+00  0.0000000000000000e+00  0.0000000000000000e+00  0.0000000000000000e+00  0.0000000000000000e+00  0.0000000000000000e+00  0.0000000000000000e+00  0.0000000000000000e+00  0.0000000000000000e+00  0.0000000000000000e+00  0.0000000000000000e+00  0.0000000000000000e+00  0.0000000000000000e+00  0.0000000000000000e+00  0.0000000000000000e+00  0.0000000000000000e+00  0.0000000000000000e+00  0.0000000000000000e+00  0.0000000000000000e+00  0.0000000000000000e+00  0.0000000000000000e+00  0.0000000000000000e+00  0.0000000000000000e+00  0.0000000000000000e+00  0.0000000000000000e+00  0.0000000000000000e+00  0.0000000000000000e+00  0.0000000000000000e+00  0.0000000000000000e+00  0.0000000000000000e+00  0.0000000000000000e+00  0.0000000000000000e+00  0.0000000000000000e+00  0.0000000000000000e+00  0.0000000000000000e+00  0.0000000000000000e+00  0.0000000000000000e+00  0.0000000000000000e+00  0.0000000000000000e+00  -3.1503392762498257e-02  -3.0646406903556380e-02  -2.9651613839054861e-02  -2.8677373762636370e-02  -2.7865975299721363e-02  -2.7263165424665021e-02  -2.6851997165863738e-02  -2.6825896895685226e-02  -2.6906726051704671e-02  -2.7311987843362244e-02  -2.7926664007154042e-02  -2.8703577851958800e-02  -2.9564916906697002e-02  -3.0518905873836506e-02  -3.1377811857280745e-02  -3.1869269977421233e-02  -3.1260138946601984e-02  -3.0550904857387005e-02  -2.9836005280573723e-02  -2.9178250054411738e-02  -2.8513162168540537e-02  -2.7955078695828937e-02  -2.7591593675877216e-02  -2.7308001645076040e-02  -2.7229157084222938e-02  -2.7309063361724856e-02  -2.7572088654817532e-02  -2.8005734373948588e-02  -2.8535103015776012e-02  -2.9279296252909544e-02  -3.0040798105352238e-02  -3.0749201809743738e-02  -3.1464424973244094e-02  -3.2063427723818698e-02  -3.1733662904225086e-02  -3.0781093386053001e-02  -2.9783278401432963e-02  -2.8784124180831254e-02  -2.7972284791954450e-02  -2.7357476384242341e-02  -2.7001929611983347e-02  -2.6856157545751345e-02  -2.6986377996453825e-02  -2.7420621011989159e-02  -2.8030802184112507e-02  -2.8804611422916081e-02  -2.9827612236900596e-02  -3.0833899625021133e-02  -3.1780217833452924e-02  -3.2045552813378550e-02  -3.1444552625401107e-02  -3.0787735955329354e-02  -3.0052490750441863e-02  -2.9276477231849687e-02  -2.8510324310087719e-02  -2.7981324799561596e-02  -2.7511796292541517e-02  -2.7230125857249102e-02  -2.7167436452132175e-02  -2.7276856362714420e-02  -2.7527298634621503e-02  -2.7851022308694656e-02  -2.8428981532050913e-02  -2.9118376802762979e-02  -2.9797802041817541e-02  -3.0552960494371697e-02  -3.1285913723179459e-02  -3.1893075058397426e-02  -2.4368275720338090e-02  -2.2988395926405090e-02  -2.4355528710090016e-02  -2.2978664114453654e-02  -2.4191553974025237e-02  -2.3758341551054732e-02  -2.4513943822581180e-02  -2.3271389645258128e-02  -2.2309421150220547e-02  -2.2536896397824132e-02  -2.2149256898759132e-02  -2.2165635937596632e-02  -2.1903723845326392e-02  -2.2187351597211271e-02  -2.5094163613826274e-02  -2.1149860564118175e-02  -2.4149777289530865e-02  -2.4518092583784831e-02  -2.1663038373988891e-02  -2.5583341064701993e-02  -2.6264032486388280e-02  -2.6174669604956013e-02  -2.6549914043117573e-02  -2.6324636879092530e-02  -2.7720956769321497e-02  -2.7186323779082099e-02  -2.8090984972007925e-02  -2.7967770184958930e-02  -2.5376515534519899e-02  -2.1975213639946551e-02  -2.0812747271814529e-02  -1.9101501151652069e-02  -1.7820527054092882e-02  -1.6258110264890338e-02  -1.4731321509709253e-02  -1.3282545320253641e-02  -1.8031277449306195e-02  -1.1455545477865680e-02  -1.0516385812544965e-02  -1.3537472701652098e-02  -1.1170135545586966e-02  -1.4429590427467831e-02  -1.3275182644003417e-02  -1.0298258943714635e-02  -1.2770587050057016e-02  -1.0730643876608846e-02  -1.3845695851122353e-02  -1.3023304270123175e-02  -1.6215347306646012e-02  -1.6131206649306701e-02  -1.3758483598786033e-02  -1.0892458408020963e-02  -1.2896601841448745e-02  -1.0695206414525768e-02  -1.3018898340884950e-02  -1.1207145008505436e-02  -1.3857550097935217e-02  -1.2489581320786964e-02  -1.5608124237714821e-02  -1.3980182014107119e-02  -1.1055611403947441e-02  -1.3551346424577044e-02  -1.1119854031437134e-02  -1.6503411242931754e-02  -1.6701205933811570e-02  -1.7409043758776842e-02  -1.6636886306332085e-02  -1.6527753386318716e-02  -1.7676171749927364e-02  -1.5399327468050391e-02  -1.2605744858401245e-02  -1.9823344533876623e-02  -1.8113915639967382e-02  -1.6152278685463047e-02  -1.6913672228066699e-02  -1.5669409956597168e-02  -1.2168105076895318e-02  -1.5969744369852042e-02  -1.3063156383177461e-02  -9.7739015331917943e-03  -1.1712272678955516e-02  -1.4534670143267384e-02  -1.4074952095805839e-02  -1.0481228194198422e-02  -1.3633154531287266e-02  -1.6475669126891773e-02  -1.6546485869264077e-02  -1.4667495086150844e-02  -1.8984086700956693e-02  -1.9502150562649010e-02  -2.1541372363392840e-02  -2.1613165720740964e-02  -9.0382252847685373e-03  -1.9514691882901641e-02  -1.9483120469546353e-02  -1.9830928143994477e-02  -1.7936409393000528e-02  -2.1808645470517883e-02  -2.2250993184295107e-02  -2.0620451466420470e-02  -1.6300069799433575e-02  -1.8827514407829090e-02  -2.0564008554788401e-02  -1.7997857914872663e-02  -1.6015643548948952e-02  -1.8525500140633193e-02  -1.9261180552873198e-02  -1.6269498720259963e-02  -1.8562863604663516e-02  -2.1043429396292841e-02  -2.1715317390617300e-02  -2.0423676138142718e-02  -1.9867964595070644e-02  -1.8931939306546679e-02  -2.0913735979429873e-02  -1.6784353629364895e-02  -8.4642196308658425e-03  -2.1074236176070894e-02  -8.4939957699681819e-03  -1.4232179338794624e-02  -1.7333577025194617e-02  -1.4755936131931472e-02  -1.7502633918587841e-02  -1.9652766299687686e-02  -2.0233151388766846e-02  -1.8691947431375523e-02  -1.7017167171031484e-02  -1.8691199285890105e-02  -1.8956144917852070e-02  -1.0090422263300943e-02  -2.3589420281589744e-02  -2.3949813891357558e-02  -1.7431754263272797e-02  -1.9930317804111128e-02  -1.9406979462693184e-02  -1.7617159068952011e-02  -1.8452727652254072e-02  -2.1056583837722596e-02  -1.9274486999671114e-02  -2.1133805098926744e-02  -2.1333715682615471e-02  -2.3084513594049810e-02  -2.4794558699216894e-02  -2.5241543086980248e-02  -1.9575669053106658e-02  -2.1695972433569882e-02  -2.1919319032659139e-02  -2.3009271987920403e-02  -2.5167719793742188e-02  -2.6157772337786926e-02  -2.2703746933875998e-02  -1.9188651188238912e-02  -1.6885290941086397e-02  -2.4461195367153705e-02  -2.3452331632568730e-02  -2.2230311198399872e-02  -2.5597008924446270e-02  -2.1974525873033741e-02  -2.1707373356576871e-02  -2.3672443601090415e-02  -2.6125600374432050e-02  -2.3158714980624395e-02  -2.1858700787701479e-02  -2.3832128801809311e-02  -2.0964796295782667e-02  -2.2975801943010608e-02  -2.0404094072650383e-02  -2.2436456110673374e-02  -2.4770325638576889e-02  -2.6706278017912134e-02  -2.5141886607043161e-02  -2.1499204579083560e-02  -1.7914336128952300e-02  -2.3496311547623598e-02  -2.3677021917630537e-02  -2.1871079219845574e-02  -2.7907846230758069e-02  -2.7918228144785746e-02  -2.7974623976483405e-02  -2.8063588602716877e-02  -2.2931051150104697e-02  -9.7145655913615913e-03  -8.0035876873529015e-03  -1.9492423311401781e-02  -2.3686633396037503e-02  -2.4104692429982949e-02  -2.3297756777512245e-02  -2.6476885632268164e-02  -2.2207482495970238e-02  -2.2423021037969868e-02  -1.8389372780125018e-02  -1.7583830636572120e-02  -2.1885375057785678e-02  -1.7021383048136947e-02  -8.7943021781050016e-03  -8.8955621401039485e-03  -1.2191362246797881e-02  -2.0527898003505698e-02  -2.2378450903805368e-02  -1.8742728453936586e-02  -2.0151812910588797e-02  -1.8807387304500465e-02  -2.2699779141005551e-02  -2.2601013107525894e-02  -9.2698656194743091e-03  -2.3871704428197710e-02  -1.9229337901889042e-02  -2.0374283553346792e-02  -1.6235502955822656e-02  -2.2160981098524015e-02  -1.6375815997963509e-02  -1.2127377449885934e-02  -2.3087268584020850e-02  -7.6687836320351553e-03  -1.5482863079026065e-02  -2.5737021666571044e-02  -1.6780826661740397e-02  -1.9096313030188144e-02  -1.9711367269969405e-02  -9.5417590426224563e-03  -2.2979654050732597e-02  -2.1222248114872628e-02  -1.8885325716580543e-02  -7.4118545706702531e-03  -2.0452997832142529e-02  -1.9448326504833437e-02  -7.9836792686156267e-03  -1.5893087308551570e-02  -1.8733250369740623e-02  -7.4612812636528931e-03  -1.6164533246179783e-02  -2.1076005897689976e-02  -2.1823595279693617e-02  -1.8416068858088254e-02  -1.5258022531925956e-02  -1.9244164529149597e-02  -2.3450694954046128e-02  -1.6646853254819762e-02  -2.9366407631217645e-02  -2.9488736607180557e-02  -2.9359711585930762e-02  -2.9551611097946403e-02  -2.1366824758287002e-02  -2.3888344230866578e-02  -2.0938521498026781e-02  -2.2718861736181640e-02  -1.9622826686728344e-02  -1.5264856179652755e-02  -2.3300745813128021e-02  -2.2092007452745525e-02  -1.8509923338353298e-02  -1.4306498366987448e-02  -1.5563957460487395e-02  -1.3926814336252957e-02  -2.1680614727303954e-02  -1.4260861726626032e-02  -1.9538380544945985e-02  -1.3778906829073621e-02  -7.5987408590359158e-03  -1.8860343430289854e-02  -1.6130480206618766e-02  -1.7845198768140703e-02  -1.9039723843321248e-02  -1.5190892646408192e-02  -1.4415707865312304e-02  -8.7018386909671255e-03  -2.4761407589831207e-02  -3.1695507345639633e-02  -3.2109195369450727e-02  -3.4189641195859627e-02  -3.6864243124040533e-02  -3.4178559691496073e-02  -3.7490481522786695e-02  -3.2023938613065642e-02  -3.3817977831354942e-02  -3.1978091314106033e-02  -3.3920406516711299e-02  -3.7019429020887590e-02  -3.6762506902766473e-02  -1.6961647716281496e-02  -1.5096857736750086e-02  -1.8229654292038946e-02  -1.5727736637330691e-02  -3.1679029085540322e-02  -3.5679155029296042e-02  -3.5869059043649988e-02  -3.1714164483541127e-02  -4.0679751844244362e-02  -4.5516161580682078e-02  -3.2389057103204985e-02  -3.2225741262157367e-02  -3.7546229066949467e-02  -4.6708952401996309e-02  -4.9179614969593465e-02  -4.9067557607955288e-02  -5.0770825307461673e-02  -5.1058779221373668e-02  -1.8065810909890918e-02  -1.7530470092203577e-02  -1.8059245168690483e-02  -1.7529977486532088e-02  -1.7134974279960562e-02  -1.6691620531652955e-02  -1.7727474754497260e-02  -5.0826064062430475e-02  -5.1334447257213055e-02  -4.8869899103284077e-02  -4.7150872070017107e-02  -1.8690098345696703e-02  -1.8045476520952970e-02  -1.7315802728818521e-02  -1.6874236602574821e-02  -1.8296701488081008e-02  -1.7221300323764267e-02  -1.9821814481717031e-02  -1.6231456675480753e-02  -4.7254071890431730e-02  -4.6123891652315729e-02  -1.8198405754459017e-02  -1.6348388149466306e-02  -1.8225149635990683e-02  -4.1182790572199583e-02  -4.5337356230413406e-02  -4.7787190248720079e-02  -4.9698449520661471e-02  -5.0779464759216505e-02  -5.0901103620314317e-02  -5.0068000422337777e-02  -5.0858264355547585e-02  -5.1008457190330703e-02  -4.9227520131381874e-02  -4.1135870263039831e-02  -4.5577594478253936e-02  -4.7829129536740574e-02  -4.9730149777683919e-02  -4.8358554147256379e-02  -5.0848128062803095e-02  -5.0971293272597709e-02  -5.1077040969187561e-02  -5.1151393050490927e-02  -4.9580351764892942e-02  -3.3928153577917737e-02  -4.0739805116080566e-02  -4.5581648274205466e-02  -4.6804716317943515e-02  -4.9352119519107160e-02  -4.9216149789969355e-02  -5.0945247388386128e-02  -5.1245334816189279e-02  -5.1072608519736037e-02  -5.1366999119028998e-02  -3.1011233078776242e-02  -3.1380669791563537e-02  -3.3142234719035393e-02  -3.3230551438716359e-02  -5.0053780463497101e-02  -4.9742692569116863e-02  -4.9903288072604884e-02  -4.9403825491529232e-02  -4.9479958808558780e-02  -5.0042541446339732e-02  -1.7861105622730408e-02  -4.9252206218745320e-02  -5.1164044941872239e-02  -4.9121432575698364e-02  -4.8987149267623466e-02  -5.0621747047547946e-02  -4.9730647184164305e-02  -3.3934830861232577e-02  -4.6093833310816311e-02  -4.6067023179401943e-02  -1.4697697042988574e-02  -1.3703501899673039e-02  -1.4712273472614348e-02  -4.5071953084527251e-02  -4.5934192740513934e-02  -4.3398297375793253e-02  -4.2662281922863310e-02  -4.7935959814010581e-02  -4.9743977190148225e-02  -4.7519719757732726e-02  -4.9248600329515224e-02  -4.6281754220132358e-02  -4.9195093299468071e-02  -4.5872642765082079e-02  -4.8372346588680878e-02  -4.5055794630195600e-02  -4.6875408996635275e-02  -4.6297297349049207e-02  -4.9081084879844347e-02  -4.5777211942184565e-02  -4.8048373409610878e-02  -4.4914183272972252e-02  -4.6902174906060003e-02  -4.3992193585524107e-02  -4.5949359409058317e-02  -4.3282821659288102e-02  -4.5308721351742749e-02  -4.2768032090824942e-02  -4.5016040942800754e-02  -4.2502220749432010e-02  -4.5121915336155151e-02  -4.3967615347462165e-02  -4.5827432130621307e-02  -4.3160905710245917e-02  -4.5144452397920393e-02  -4.2603012300657529e-02  -4.4836956127311145e-02  -4.2291433846587782e-02  -4.4958428550759953e-02  -4.5351826569933210e-02  -4.5014363684876671e-02  -4.8690941631044191e-02  -4.8544607221632050e-02  -4.5053594299640044e-02  -4.4450605974836271e-02  -4.2819337116698754e-02  -4.5652109520154346e-02  -4.3274378594651601e-02  -4.6420083972381856e-02  -4.3750412123119649e-02  -4.2589697350671696e-02  -4.5450389231390886e-02  -4.2961432602448855e-02  -4.6170858068332730e-02  -4.3400082018192156e-02  -4.9288736474930726e-02  -4.6144036286524345e-02  -4.5202882582397901e-02  -4.5753057805976549e-02  -4.6819124594792198e-02  -4.5868068077828485e-02  -4.6971764336446994e-02  -4.4308827118381126e-02  -3.9777209988743026e-02  -4.4545159865471987e-02  -3.9812924625148002e-02  -4.4787167200384045e-02  -3.7234508253325964e-02  -4.4928525063963859e-02  -4.5090273630798358e-02  -4.1152447200482271e-02  -3.9468955554187404e-02  -3.7057926080150384e-02  -4.4904803285837937e-02  -4.0221037694707557e-02  -4.6787869145132652e-02  -3.8866810792030672e-02  -4.6895474673233031e-02  -3.7056365439921884e-02  -3.7256058189806519e-02  -3.6298400263061588e-02  -4.2219535922480927e-02  -3.8169873002573323e-02  -4.2386207860578340e-02  -3.0531362022767319e-02  -5.0148620767970921e-02  -1.1673520501045276e-02  -4.4919527592743931e-02  -5.0150021573484034e-02  -3.8679964397167303e-02  -3.6107318813927883e-02  -4.0729911385126279e-02  -3.8660100817420738e-02  -4.5426734730185638e-02  -4.5420698290594579e-02  -4.4064092157680541e-02  -4.7285640546626304e-02  -4.5466916072433125e-02  -4.6339833748311354e-02  -4.4849809532984425e-02  -4.3047092189750592e-02  -4.2007098276010679e-02  -4.5025657046775358e-02  -4.3314835233814734e-02  -4.1010472225515841e-02  -4.1789299274145583e-02  -4.0112020911986263e-02  -4.0907382628774587e-02  -3.9745547035445541e-02  -4.0430149205679285e-02  -4.0017502031968279e-02  -4.0680725372329599e-02  -3.7474628214967644e-02  -4.2000996042465613e-02  -4.2400094725553436e-02  -4.1348392890887591e-02  -3.0876446589907087e-02  -4.0221574421554843e-02  -3.7634081581998456e-02  -3.8440590359215467e-02  -3.5638643700993733e-02  -1.0647328713837390e-02  -1.2410855989924648e-02  -1.1748761251277186e-02  -4.4391993169979459e-02  -3.8836830255669225e-02  -4.7932755708596009e-02  -4.2855783371455437e-02  -4.5805235086881210e-02  -3.2239624749403686e-02  -3.3030436409524945e-02  -3.3832990453939692e-02  -3.8976568329800967e-02  -4.2345161000490364e-02  -4.5298691100708735e-02  -4.3606106064969466e-02  -3.8964168420845623e-02  -4.1445756486847271e-02  -4.2072481921167124e-02  -4.1363193264091311e-02  -3.9522572441874834e-02  -4.0653986467421951e-02  -3.7224341842564325e-02  -3.9780715130341017e-02  -4.0218212786017504e-02  -4.0650552394085507e-02  -3.8781306051724786e-02  -4.1153121424334270e-02  -3.7627395514502018e-02  -4.1261702081040297e-02  -4.1774487015002887e-02  -4.3137033525531540e-02  -4.1172322288736983e-02  -4.4572766629809996e-02  -4.0530092249808539e-02  -4.5518072148620893e-02  -3.9011791912102717e-02  -4.4098728109047837e-02  -4.3303119301628556e-02  -4.4987943738623491e-02  -4.2657490618746435e-02  -4.9351067435298969e-02  -4.7699628348411793e-02  -3.6315628348343412e-02  -3.3753364803033030e-02  -4.3301805438197435e-02  -4.2661180079022372e-02  -4.7537752032490652e-02  -3.9381522673511950e-02  -4.8117923396159563e-02  -3.5499410460642637e-02  -3.9300553827814839e-02  -4.0712073005002958e-02  -4.6029020441341009e-02  -3.4690229273380051e-02  -4.1367222596696555e-02  -3.8703415758585276e-02  -3.7466596452234838e-02  -3.7416257610228432e-02  -3.9259950064525935e-02  -4.1504402723912294e-02  -3.7011197691564302e-02  -3.9981388317023095e-02  -3.90132309553