<?xml version="1.0"?>
<VTKFile type="UnstructuredGrid"  version="0.1"  >
<UnstructuredGrid>
<Piece  NumberOfPoints="1297" NumberOfCells="2496">
<Points>
<DataArray  type="Float64"  NumberOfComponents="3"  format="ascii">0 0 0  0 1 0  1 1 0  1 0 0  1.1 -0.1 0  -0.1 -0.1 0  1.1 1.1 0  -0.1 1.1 0  0.2936094729111685 0.6659403146588387 0  0.29435963276954 0.334569353210976 0  0.7072223991642079 0.3336146638084839 0  0.7072159482060629 0.666616766441983 0  0.5004763623362084 0.5001685108597682 0  0 0.9499999999997918 0  0 0.8999999999995836 0  0 0.8499999999996529 0  0 0.7999999999999998 0  0 0.7500000000003466 0  0 0.7000000000006934 0  0 0.6500000000010401 0  0 0.6000000000013869 0  0 0.5500000000017335 0  0 0.5000000000020587 0  0 0.4500000000018723 0  0 0.4000000000016644 0  0 0.3500000000014564 0  0 0.3000000000012483 0  0 0.2500000000010403 0  0 0.2000000000008322 0  0 0.1500000000006241 0  0 0.100000000000416 0  0 0.05000000000020799 0  0.04999999999989965 0 0  0.09999999999981467 0 0  0.1499999999997036 0 0  0.1999999999995579 0 0  0.2499999999994121 0 0  0.2999999999992664 0 0  0.3499999999991206 0 0  0.3999999999989749 0 0  0.4499999999988292 0 0  0.4999999999986943 0 0  0.5499999999988151 0 0  0.5999999999989468 0 0  0.6499999999990784 0 0  0.69999999999921 0 0  0.7499999999993417 0 0  0.7999999999994734 0 0  0.8499999999996051 0 0  0.8999999999997368 0 0  0.9499999999998684 0 0  1 0.04999999999989965 0  1 0.09999999999981467 0  1 0.1499999999997036 0  1 0.1999999999995579 0  1 0.2499999999994121 0  1 0.2999999999992664 0  1 0.3499999999991206 0  1 0.3999999999989749 0  1 0.4499999999988292 0  1 0.4999999999986943 0  1 0.5499999999988151 0  1 0.5999999999989468 0  1 0.6499999999990784 0  1 0.69999999999921 0  1 0.7499999999993417 0  1 0.7999999999994734 0  1 0.8499999999996051 0  1 0.8999999999997368 0  1 0.9499999999998684 0  0.9499999999997918 1 0  0.8999999999995836 1 0  0.8499999999996529 1 0  0.7999999999999998 1 0  0.7500000000003466 1 0  0.7000000000006934 1 0  0.6500000000010401 1 0  0.6000000000013869 1 0  0.5500000000017335 1 0  0.5000000000020587 1 0  0.4500000000018723 1 0  0.4000000000016644 1 0  0.3500000000014564 1 0  0.3000000000012483 1 0  0.2500000000010403 1 0  0.2000000000008322 1 0  0.1500000000006241 1 0  0.100000000000416 1 0  0.05000000000020799 1 0  -0.1 1.05000000000004 0  -0.1 1.000000000000079 0  -0.1 0.9500000000001624 0  -0.1 0.9000000000003032 0  -0.1 0.850000000000444 0  -0.1 0.8000000000005848 0  -0.1 0.7500000000007256 0  -0.1 0.7000000000008665 0  -0.1 0.6500000000010508 0  -0.1 0.6000000000012352 0  -0.1 0.5500000000014196 0  -0.1 0.500000000001539 0  -0.1 0.4500000000014195 0  -0.1 0.4000000000013 0  -0.1 0.3500000000011588 0  -0.1 0.3000000000010178 0  -0.1 0.2500000000008986 0  -0.1 0.2000000000007579 0  -0.1 0.1500000000006174 0  -0.1 0.1000000000005272 0  -0.1 0.05000000000040083 0  -0.1 2.671196597248127e-13 0  -0.1 -0.0499999999998666 0  -0.0500000000000906 -0.1 0  -1.730560139634463e-13 -0.1 0  0.04999999999975802 -0.1 0  0.09999999999961506 -0.1 0  0.1499999999994613 -0.1 0  0.199999999999302 -0.1 0  0.2499999999991446 -0.1 0  0.2999999999990088 -0.1 0  0.3499999999988296 -0.1 0  0.3999999999986936 -0.1 0  0.4499999999985143 -0.1 0  0.4999999999984002 -0.1 0  0.5499999999985247 -0.1 0  0.5999999999986493 -0.1 0  0.6499999999987955 -0.1 0  0.6999999999989417 -0.1 0  0.7499999999990659 -0.1 0  0.7999999999992116 -0.1 0  0.8499999999993573 -0.1 0  0.8999999999994526 -0.1 0  0.949999999999584 -0.1 0  0.9999999999997226 -0.1 0  1.049999999999861 -0.1 0  1.1 -0.0500000000000906 0  1.1 -1.730560139634463e-13 0  1.1 0.04999999999975802 0  1.1 0.09999999999961506 0  1.1 0.1499999999994613 0  1.1 0.199999999999302 0  1.1 0.2499999999991446 0  1.1 0.2999999999990088 0  1.1 0.3499999999988296 0  1.1 0.3999999999986936 0  1.1 0.4499999999985143 0  1.1 0.4999999999984002 0  1.1 0.5499999999985247 0  1.1 0.5999999999986493 0  1.1 0.6499999999987955 0  1.1 0.6999999999989417 0  1.1 0.7499999999990659 0  1.1 0.7999999999992116 0  1.1 0.8499999999993573 0  1.1 0.8999999999994526 0  1.1 0.949999999999584 0  1.1 0.9999999999997226 0  1.1 1.049999999999861 0  1.05000000000004 1.1 0  1.000000000000079 1.1 0  0.9500000000001624 1.1 0  0.9000000000003032 1.1 0  0.850000000000444 1.1 0  0.8000000000005848 1.1 0  0.7500000000007256 1.1 0  0.7000000000008665 1.1 0  0.6500000000010508 1.1 0  0.6000000000012352 1.1 0  0.5500000000014196 1.1 0  0.500000000001539 1.1 0  0.4500000000014195 1.1 0  0.4000000000013 1.1 0  0.3500000000011588 1.1 0  0.3000000000010178 1.1 0  0.2500000000008986 1.1 0  0.2000000000007579 1.1 0  0.1500000000006174 1.1 0  0.1000000000005272 1.1 0  0.05000000000040083 1.1 0  2.671196597248127e-13 1.1 0  -0.0499999999998666 1.1 0  0.2841410041431889 0.6529433063647507 0  0.2751701580531951 0.6353041069200152 0  0.2678801593781771 0.615219071595954 0  0.2623088941528445 0.5934676766484047 0  0.2582379444816614 0.5707698016500163 0  0.2554748381135151 0.5474707930785524 0  0.2538891584094206 0.5238283239352682 0  0.2534111492725344 0.5000673401797859 0  0.2540119825443381 0.4762775395935097 0  0.2557196887955585 0.4526381936433058 0  0.2586206101629002 0.4293721735273911 0  0.2628265103511053 0.4067159160989069 0  0.268536380719672 0.3850333816262744 0  0.2759326527493428 0.3649850443457598 0  0.284967318623894 0.3474533925602696 0  0.3062981846219596 0.3239381983279078 0  0.3224943293333884 0.313413060301365 0  0.341395974053855 0.3041942264877571 0  0.3620233064128446 0.2964353887384257 0  0.3838059808025178 0.2900609207089535 0  0.4063622886989281 0.2849563487326506 0  0.4294334381246079 0.2810337473042717 0  0.4528708217775055 0.2782227555973765 0  0.476534500600551 0.2765053990088178 0  0.5003082204358572 0.2758720182286449 0  0.524094845535502 0.276320371609432 0  0.5477846492530876 0.2778536607266122 0  0.571277121910044 0.2804943997248305 0  0.5944069026971102 0.2842705942386515 0  0.6170351340636062 0.289242383827211 0  0.63893088090351 0.2954964855615301 0  0.6597070047617282 0.3031811607657784 0  0.6787890358345861 0.3123693082133578 0  0.6951091623009301 0.3229000876271872 0  0.7167691712623632 0.3467761539631666 0  0.7257813223351623 0.3643480140601477 0  0.7331644416208289 0.3845691776534529 0  0.7388346067898387 0.4064227465854759 0  0.7429899302231784 0.4292051723462232 0  0.7458253078917724 0.4525581782340034 0  0.7474789272401136 0.4762480515313031 0  0.7480268427035327 0.5000988220906283 0  0.7474912998540995 0.5239573958700141 0  0.7458461129574288 0.5476772339348126 0  0.7430259736204443 0.5710355515690694 0  0.7388606765568838 0.593821491577895 0  0.7332032045455906 0.6156366858921946 0  0.7258233970357827 0.635861470359454 0  0.7168002465944495 0.653434849559669 0  0.6951054439909309 0.6773585395528249 0  0.6787652277712892 0.6879290423716296 0  0.6597154757852582 0.6971562751809495 0  0.6389505042348496 0.7048554958469752 0  0.6170628819857923 0.711134895706116 0  0.594426978335176 0.7161284430350269 0  0.5712680394302621 0.7199306871836747 0  0.5477621383571984 0.7225864074570403 0  0.5240538144402794 0.7241344268878028 0  0.5002492091823085 0.724596017043617 0  0.4764558394411987 0.7239786409357125 0  0.4527813170344471 0.7222782770265178 0  0.4293212764008477 0.7194906161428231 0  0.4062101849609147 0.7155794278912589 0  0.3836147012854444 0.7105027866034664 0  0.361753929123423 0.7041469120776186 0  0.3410114447202273 0.6963952867114065 0  0.3219873395847896 0.6871691162117286 0  0.3056526658755142 0.67662282397789 0  0.3735725139984527 0.3175981166196499 0  0.2802746466364329 0.440822272323404 0  0.3733617186715568 0.6828928860627992 0  0.2800021190293271 0.5593560391979159 0  0.7199005283923225 0.5823026313534171 0  0.605167280918781 0.6895254158628702 0  0.6264454206669866 0.3162304808307146 0  0.7227472392848971 0.4399464915318511 0  0.7247790976305662 0.5114623242370481 0  0.5585098100978265 0.3033458653510787 0  0.4425268142089723 0.3058557736169669 0  0.4410638468439796 0.6949554431311944 0  0.5356905309015779 0.6977792016166676 0  0.2772306725281566 0.4881521246679998 0  0.2857291809072321 0.3952478708012021 0  0.4887448097890411 0.3051625611126852 0  0.29072456091714 0.6034007078759293 0  0.7099603773379266 0.3929302077375587 0  0.4884845825383567 0.6985777459350767 0  0.6489806046724995 0.6779357324438529 0  0.3315836702634933 0.3324405158136594 0  0.6699111022387346 0.3330406059241028 0  0.331724983702128 0.6703429687770203 0  0.7079741948669072 0.6281615459425194 0  0.2979692045771151 0.3542599543895389 0  0.2992666667343406 0.6451027314820859 0  0.6880168130736618 0.6639073054461715 0  0.7040847337167467 0.353180740926814 0  0.3519637559813965 0.6769694251781675 0  0.3628255038934422 0.6574749860879681 0  0.3846556442852251 0.6615530453060338 0  0.3730462150328862 0.6366101983653923 0  0.3962080425723755 0.6395970721137471 0  0.3832356886642371 0.6124894299254664 0  0.4112781999486544 0.6148812578990263 0  0.3953205809320393 0.5829062256835472 0  0.3559157407214207 0.6091172274984209 0  0.4297217615184234 0.5841285539888199 0  0.4097239733140404 0.5479278936547359 0  0.3694936140770005 0.5527691761403402 0  0.3866058539431 0.5142676586441393 0  0.3484667061725781 0.5162170899274232 0  0.3617513077376738 0.482114986717695 0  0.4018492296670454 0.4767559311676691 0  0.380576425089309 0.4445418200731642 0  0.4169611539829619 0.4387401542552192 0  0.396548590393299 0.4082846385524504 0  0.4298089429871745 0.3956378737879876 0  0.3623273507702156 0.4106996762851948 0  0.4053402198764595 0.3751409669947704 0  0.4387673031339467 0.618098508646679 0  0.4650184693799355 0.5927134001732933 0  0.4837048288304128 0.6196405553498895 0  0.5026301506579346 0.5945917044624822 0  0.5206275935357173 0.6198764275804272 0  0.5393459082394791 0.5948334351830578 0  0.5569994697404475 0.6199578442992029 0  0.5754603163810899 0.5952071220598426 0  0.5935454811763332 0.6223056940553083 0  0.6109214264485763 0.5885690962117041 0  0.594743348501426 0.55497
[...]
<PointData  Scalars="state"> 
<DataArray  type="Float64"  Name="state"  format="ascii">0.0000000000000000e+00  0.0000000000000000e+00  0.0000000000000000e+00  0.0000000000000000e+00  0.0000000000000000e+00  0.0000000000000000e+00  0.0000000000000000e+00  0.0000000000000000e+00  -3.2665401273290796e-02  -3.2624904618578740e-02  -3.2839829169089160e-02  -3.2848935138527609e-02  -6.9510796728740531e-03  0.0000000000000000e+00  0.0000000000000000e+00  0.0000000000000000e+00  0.0000000000000000e+00  0.0000000000000000e+00  0.0000000000000000e+00  0.0000000000000000e+00  0.0000000000000000e+00  0.0000000000000000e+00  0.0000000000000000e+00  0.0000000000000000e+00  0.0000000000000000e+00  0.0000000000000000e+00  0.0000000000000000e+00  0.0000000000000000e+00  0.0000000000000000e+00  0.0000000000000000e+00  0.0000000000000000e+00  0.0000000000000000e+00  0.0000000000000000e+00  0.0000000000000000e+00  0.0000000000000000e+00  0.0000000000000000e+00  0.0000000000000000e+00  0.0000000000000000e+00  0.0000000000000000e+00  0.0000000000000000e+00  0.0000000000000000e+00  0.0000000000000000e+00  0.0000000000000000e+00  0.0000000000000000e+00  0.0000000000000000e+00  0.0000000000000000e+00  0.0000000000000000e+00  0.0000000000000000e+00  0.0000000000000000e+00  0.0000000000000000e+00  0.0000000000000000e+00  0.0000000000000000e+00  0.0000000000000000e+00  0.0000000000000000e+00  0.0000000000000000e+00  0.0000000000000000e+00  0.0000000000000000e+00  0.0000000000000000e+00  0.0000000000000000e+00  0.0000000000000000e+00  0.0000000000000000e+00  0.0000000000000000e+00  0.0000000000000000e+00  0.0000000000000000e+00  0.0000000000000000e+00  0.0000000000000000e+00  0.0000000000000000e+00  0.0000000000000000e+00  0.0000000000000000e+00  0.0000000000000000e+00  0.0000000000000000e+00  0.0000000000000000e+00  0.0000000000000000e+00  0.0000000000000000e+00  0.0000000000000000e+00  0.0000000000000000e+00  0.0000000000000000e+00  0.0000000000000000e+00  0.0000000000000000e+00  0.0000000000000000e+00  0.0000000000000000e+00  0.0000000000000000e+00  0.0000000000000000e+00  0.0000000000000000e+00  0.0000000000000000e+00  0.0000000000000000e+00  0.0000000000000000e+00  0.0000000000000000e+00  0.0000000000000000e+00  0.0000000000000000e+00  0.0000000000000000e+00  0.0000000000000000e+00  0.0000000000000000e+00  0.0000000000000000e+00  0.0000000000000000e+00  0.0000000000000000e+00  0.0000000000000000e+00  0.0000000000000000e+00  0.0000000000000000e+00  0.0000000000000000e+00  0.0000000000000000e+00  0.0000000000000000e+00  0.0000000000000000e+00  0.0000000000000000e+00  0.0000000000000000e+00  0.0000000000000000e+00  0.0000000000000000e+00  0.0000000000000000e+00  0.0000000000000000e+00  0.0000000000000000e+00  0.0000000000000000e+00  0.0000000000000000e+00  0.0000000000000000e+00  0.0000000000000000e+00  0.0000000000000000e+00  0.0000000000000000e+00  0.0000000000000000e+00  0.0000000000000000e+00  0.0000000000000000e+00  0.0000000000000000e+00  0.0000000000000000e+00  0.0000000000000000e+00  0.0000000000000000e+00  0.0000000000000000e+00  0.0000000000000000e+00  0.0000000000000000e+00  0.0000000000000000e+00  0.0000000000000000e+00  0.0000000000000000e+00  0.0000000000000000e+00  0.0000000000000000e+00  0.0000000000000000e+00  0.0000000000000000e+00  0.0000000000000000e+00  0.0000000000000000e+00  0.0000000000000000e+00  0.0000000000000000e+00  0.0000000000000000e+00  0.0000000000000000e+00  0.0000000000000000e+00  0.0000000000000000e+00  0.0000000000000000e+00  0.0000000000000000e+00  0.0000000000000000e+00  0.0000000000000000e+00  0.0000000000000000e+00  0.0000000000000000e+00  0.0000000000000000e+00  0.0000000000000000e+00  0.0000000000000000e+00  0.0000000000000000e+00  0.0000000000000000e+00  0.0000000000000000e+00  0.0000000000000000e+00  0.0000000000000000e+00  0.0000000000000000e+00  0.0000000000000000e+00  0.0000000000000000e+00  0.0000000000000000e+00  0.0000000000000000e+00  0.0000000000000000e+00  0.0000000000000000e+00  0.0000000000000000e+00  0.0000000000000000e+00  0.0000000000000000e+00  0.0000000000000000e+00  0.0000000000000000e+00  0.0000000000000000e+00  0.0000000000000000e+00  0.0000000000000000e+00  0.0000000000000000e+00  0.0000000000000000e+00  0.0000000000000000e+00  0.0000000000000000e+00  0.0000000000000000e+00  0.0000000000000000e+00  0.0000000000000000e+00  0.0000000000000000e+00  0.0000000000000000e+00  0.0000000000000000e+00  0.0000000000000000e+00  -3.1662874007904962e-02  -3.0740953440526689e-02  -2.9684285854170302e-02  -2.8661304904849853e-02  -2.7813855989647425e-02  -2.7187491042830379e-02  -2.6763537658822903e-02  -2.6732458613261685e-02  -2.6817657015036900e-02  -2.7236015397715811e-02  -2.7874297653174375e-02  -2.8687009306514223e-02  -2.9598783802042995e-02  -3.0615324176550562e-02  -3.1537843042835731e-02  -3.2038770802614885e-02  -3.1378088513330481e-02  -3.0612294372779642e-02  -2.9849182442862016e-02  -2.9154311376444936e-02  -2.8462981525730735e-02  -2.7888064964282606e-02  -2.7513559049049896e-02  -2.7223976352251766e-02  -2.7143238244116751e-02  -2.7224775519717168e-02  -2.7494016433809221e-02  -2.7939882391901788e-02  -2.8486305427238522e-02  -2.9257971247311290e-02  -3.0056817926185000e-02  -3.0813637525250365e-02  -3.1586056813966076e-02  -3.2238008659941877e-02  -3.1896332370477613e-02  -3.0881218748654009e-02  -2.9821494917221747e-02  -2.8773768283393848e-02  -2.7926703051727571e-02  -2.7288246573310158e-02  -2.6919460177106572e-02  -2.6769423837560827e-02  -2.6903532625587347e-02  -2.7351133069366790e-02  -2.7984654478396227e-02  -2.8794206599357806e-02  -2.9865697305576984e-02  -3.0933348685165292e-02  -3.1941685437927074e-02  -3.2219608284449447e-02  -3.1567291822947187e-02  -3.0854158232320388e-02  -3.0070212005480032e-02  -2.9256231205446837e-02  -2.8462723259324058e-02  -2.7916695459604117e-02  -2.7435510744018909e-02  -2.7147843676835173e-02  -2.7082804803941041e-02  -2.7193732322788267e-02  -2.7450225316176975e-02  -2.7784654803288993e-02  -2.8380117531245797e-02  -2.9095802289120207e-02  -2.9811015997230732e-02  -3.0613306092852496e-02  -3.1403266788792024e-02  -3.2062981023365800e-02  -2.4380721391445918e-02  -2.2952776626321621e-02  -2.4368748829844716e-02  -2.2942690540731878e-02  -2.4182260922479895e-02  -2.3751321236765353e-02  -2.4528653012070595e-02  -2.3240536334854681e-02  -2.2256455412712567e-02  -2.2498035209360258e-02  -2.2111599652749604e-02  -2.2129721288584942e-02  -2.1861004420994826e-02  -2.2128329669841369e-02  -2.5113612045475575e-02  -2.1105895843901292e-02  -2.4167934614692448e-02  -2.4547417494206566e-02  -2.1616555644618219e-02  -2.5629805178397063e-02  -2.6338909732790856e-02  -2.6252790287620401e-02  -2.6623945775152213e-02  -2.6391841466773657e-02  -2.7824754022128313e-02  -2.7284540314439748e-02  -2.8205643880104041e-02  -2.8078105018247562e-02  -2.5418213516331979e-02  -2.1999651965438030e-02  -2.0820890991680926e-02  -1.9115927758227572e-02  -1.7824420860215049e-02  -1.6263551763910138e-02  -1.4732682630923378e-02  -1.3282802643517232e-02  -1.8043848029912084e-02  -1.1457369493668063e-02  -1.0515652825262753e-02  -1.3530739360639473e-02  -1.1163366429405535e-02  -1.4412310192480815e-02  -1.3261693562047880e-02  -1.0294778744603474e-02  -1.2765643536269350e-02  -1.0730873293449007e-02  -1.3846329695929728e-02  -1.3023762701691675e-02  -1.6217519288463024e-02  -1.6132254619570657e-02  -1.3757718111208721e-02  -1.0895709821958109e-02  -1.2894953993960109e-02  -1.0699480740611281e-02  -1.3017844435017717e-02  -1.1211434816482771e-02  -1.3857830048182418e-02  -1.2493754733574312e-02  -1.5612831535747097e-02  -1.3984062898420321e-02  -1.1057743940811295e-02  -1.3549016647279829e-02  -1.1117736713603256e-02  -1.6508809144282429e-02  -1.6693804439087179e-02  -1.7405939696900727e-02  -1.6622256267603486e-02  -1.6511369274575541e-02  -1.7647113571771875e-02  -1.5392518139675742e-02  -1.2605042299684810e-02  -1.9818004730600077e-02  -1.8103733105347831e-02  -1.6136627009752814e-02  -1.6898996233833306e-02  -1.5656298546261157e-02  -1.2167566604260152e-02  -1.5955002570121543e-02  -1.3061653494788215e-02  -9.7787891757947134e-03  -1.1716257056026618e-02  -1.4534893073974006e-02  -1.4078992354773485e-02  -1.0484245307924535e-02  -1.3635231008210541e-02  -1.6484701093782937e-02  -1.6552901104638532e-02  -1.4664777647730267e-02  -1.9004129088124006e-02  -1.9516114538542368e-02  -2.1574972066088854e-02  -2.1648078068264014e-02  -9.0413110635266022e-03  -1.9519129911485422e-02  -1.9503258442306052e-02  -1.9817213290489386e-02  -1.7915329370913120e-02  -2.1833131084312743e-02  -2.2291435535602481e-02  -2.0648828117565906e-02  -1.6286522379401040e-02  -1.8799768920999965e-02  -2.0535067589123612e-02  -1.7977094595730755e-02  -1.6002919056522357e-02  -1.8524595620876688e-02  -1.9275659684928809e-02  -1.6246759418217634e-02  -1.8538096344924405e-02  -2.1056676207071294e-02  -2.1747358266615880e-02  -2.0448075692752279e-02  -1.9839686461561139e-02  -1.8921363246999001e-02  -2.0868251088130226e-02  -1.6780347174092974e-02  -8.4700232685096227e-03  -2.1067470949741825e-02  -8.4965784222168685e-03  -1.4220846825340890e-02  -1.7308712574033977e-02  -1.4742373235280328e-02  -1.7480007535754596e-02  -1.9616053641119929e-02  -2.0200215245404791e-02  -1.8677783759165133e-02  -1.7023938068604489e-02  -1.8695623406701896e-02  -1.8919435436967284e-02  -1.0090638319426684e-02  -2.3643001928803704e-02  -2.4000720191470020e-02  -1.7444977129762489e-02  -1.9948422567366623e-02  -1.9425146793173552e-02  -1.7623196818286044e-02  -1.8445428156765621e-02  -2.1067177503350170e-02  -1.9281761150397439e-02  -2.1161847476737761e-02  -2.1334179153864475e-02  -2.3128409543162812e-02  -2.4859299967633471e-02  -2.5282645202365429e-02  -1.9533123200592792e-02  -2.1651425503071552e-02  -2.1875613339402595e-02  -2.3053492242011815e-02  -2.5238008545454417e-02  -2.6218769680111442e-02  -2.2678915954323916e-02  -1.9173619865221939e-02  -1.6881754989092470e-02  -2.4487119195013996e-02  -2.3443522174779435e-02  -2.2208843650928609e-02  -2.5639538761102237e-02  -2.1951280809055070e-02  -2.1664321922413042e-02  -2.3661072126095192e-02  -2.6183888801314652e-02  -2.3194687821961588e-02  -2.1811409422560352e-02  -2.3825796581340073e-02  -2.0956078623573952e-02  -2.2951815479606650e-02  -2.0399775280200858e-02  -2.2400152440353694e-02  -2.4786468921293950e-02  -2.6786725722472031e-02  -2.5214052021095685e-02  -2.1510457862938769e-02  -1.7889424873452853e-02  -2.3545402980450072e-02  -2.3669483982670662e-02  -2.1894020685749107e-02  -2.8018093916678363e-02  -2.8028308498766960e-02  -2.8083560261836622e-02  -2.8180018517074402e-02  -2.2901783317629043e-02  -9.7177792435778499e-03  -8.0106968560753507e-03  -1.9459338986986128e-02  -2.3671228012412442e-02  -2.4091396907650855e-02  -2.3331014292233408e-02  -2.6546148875951869e-02  -2.2161701263771014e-02  -2.2452025255784169e-02  -1.8364083641094698e-02  -1.7582657372559759e-02  -2.1836530875819368e-02  -1.6992257936170173e-02  -8.7949969428924059e-03  -8.8992451897062039e-03  -1.2189482459945441e-02  -2.0553222768223335e-02  -2.2406862176707516e-02  -1.8715487706140867e-02  -2.0145493538677072e-02  -1.8785185970279290e-02  -2.2636007309285295e-02  -2.2546688748486764e-02  -9.2751778021817975e-03  -2.3918920708411718e-02  -1.9206090663418197e-02  -2.0371750835231933e-02  -1.6235570034251356e-02  -2.2168897088853820e-02  -1.6366305431861832e-02  -1.2122354269512577e-02  -2.3038977543610888e-02  -7.6748063673531194e-03  -1.5483706246224404e-02  -2.5817329639457726e-02  -1.6771728508063043e-02  -1.9072479927277775e-02  -1.9695463480220856e-02  -9.5461701940705371e-03  -2.2927853868424490e-02  -2.1229636786932841e-02  -1.8855762263204089e-02  -7.4182757244985378e-03  -2.0430474763853877e-02  -1.9462478769600829e-02  -7.9901863708947366e-03  -1.5882083956408929e-02  -1.8704995839281355e-02  -7.4664178623607986e-03  -1.6149761369280979e-02  -2.1058521391690850e-02  -2.1833917390580628e-02  -1.8423464560181190e-02  -1.5247372759906406e-02  -1.9224282692818347e-02  -2.3399077052178748e-02  -1.6638524985764156e-02  -2.9506805918639314e-02  -2.9634293643794440e-02  -2.9501083346475797e-02  -2.9696533075026125e-02  -2.1384513515041115e-02  -2.3938771347320434e-02  -2.0913202292164788e-02  -2.2728049310351425e-02  -1.9603838217151098e-02  -1.5265161444617448e-02  -2.3348034232926303e-02  -2.2120321798726698e-02  -1.8523667663677277e-02  -1.4302700983047192e-02  -1.5553013412866332e-02  -1.3921281795958742e-02  -2.1672003944438727e-02  -1.4256007808199590e-02  -1.9540213153654125e-02  -1.3772131783192757e-02  -7.6056904023305040e-03  -1.8846482957854366e-02  -1.6126593325831266e-02  -1.7842767355755587e-02  -1.9008723416103813e-02  -1.5170033008338262e-02  -1.4412294467552367e-02  -8.7054797984630495e-03  -2.4822467870751753e-02  -3.1686425369628402e-02  -3.2103890482935132e-02  -3.4199246409365947e-02  -3.6897861685338200e-02  -3.4190104730645647e-02  -3.7528591493441919e-02  -3.2015243910614256e-02  -3.3822039176689155e-02  -3.1969811940535983e-02  -3.3929112243141622e-02  -3.7058178982566879e-02  -3.6795768962482406e-02  -1.6958512654604310e-02  -1.5093930681146693e-02  -1.8225648954466548e-02  -1.5724672791180828e-02  -3.1605785813567620e-02  -3.5657321748200514e-02  -3.5854905324576788e-02  -3.1647296034853882e-02  -4.0671470902639409e-02  -4.5450451958222983e-02  -3.2330913218375820e-02  -3.2158822110641264e-02  -3.7533364828594040e-02  -4.6619267599373633e-02  -4.9088759196738663e-02  -4.8994931202347505e-02  -5.0688646885403893e-02  -5.0993567718996616e-02  -1.8125616563723343e-02  -1.7586965523600090e-02  -1.8117717630366768e-02  -1.7587087840525806e-02  -1.7100852933881087e-02  -1.6660520010646940e-02  -1.7693287927318193e-02  -5.0758680253726082e-02  -5.1288362410675220e-02  -4.8767268271895488e-02  -4.7045589410170216e-02  -1.8642263039783492e-02  -1.7998206643481292e-02  -1.7273456908285946e-02  -1.6834748940792343e-02  -1.8252473976518351e-02  -1.7183547919164436e-02  -1.9768922976843375e-02  -1.6256790258555271e-02  -4.7148429025371023e-02  -4.6015078254103704e-02  -1.8224913862775558e-02  -1.6373256813969020e-02  -1.8251416802522683e-02  -4.1191876560850590e-02  -4.5272594514969532e-02  -4.7727974816974994e-02  -4.9615298242022862e-02  -5.0714117167757471e-02  -5.0821772467555100e-02  -4.9971798344126975e-02  -5.0800126418525458e-02  -5.0967279009901785e-02  -4.9158162771923239e-02  -4.1149701696249465e-02  -4.5513809098251215e-02  -4.7772746869482810e-02  -4.9648181792567428e-02  -4.8264235017015072e-02  -5.0784826018952976e-02  -5.0891949457015653e-02  -5.1019524204104313e-02  -5.1112635643764469e-02  -4.9511528177388402e-02  -3.3892213030496769e-02  -4.0730715877751067e-02  -4.5516038965135036e-02  -4.6714742766278003e-02  -4.9260477290530146e-02  -4.9142891673483721e-02  -5.0862717886420931e-02  -5.1180058179466734e-02  -5.1004481707836141e-02  -5.1319040199644478e-02  -3.0940440084861069e-02  -3.1302546018146284e-02  -3.3088442041981428e-02  -3.3184535511213316e-02  -4.9959391167250629e-02  -4.9709166777988256e-02  -4.9892579546154982e-02  -4.9352772371055564e-02  -4.9445700321686839e-02  -5.0031400221925065e-02  -1.7834829751441184e-02  -4.9223300729337317e-02  -5.1142937993059863e-02  -4.9071902063070952e-02  -4.8959816501674296e-02  -5.0605937951983600e-02  -4.9648971352382026e-02  -3.3903963608337979e-02  -4.6083311340874115e-02  -4.6055715972058334e-02  -1.4681691386347671e-02  -1.3689159311105743e-02  -1.4696517040868044e-02  -4.5038098268213637e-02  -4.5903500725015589e-02  -4.3297227405753348e-02  -4.2559654888800598e-02  -4.7933414647981176e-02  -4.9757930650065341e-02  -4.7519128339016857e-02  -4.9265742612898178e-02  -4.6296838240477457e-02  -4.9215681848698088e-02  -4.5919238751198743e-02  -4.8429804177285971e-02  -4.5136528014054655e-02  -4.6973949591815764e-02  -4.6312175861737810e-02  -4.9105111517745874e-02  -4.5823782407081619e-02  -4.8110273257866792e-02  -4.4995090591720251e-02  -4.7001028374874895e-02  -4.4104273868836218e-02  -4.6079795408199051e-02  -4.3419848964153483e-02  -4.5461771846259248e-02  -4.2920364723029722e-02  -4.5179365789354706e-02  -4.2657440582798717e-02  -4.5281716184762275e-02  -4.4080093431977281e-02  -4.5958467323262565e-02  -4.3298707303780423e-02  -4.5298292938637977e-02  -4.2756465878463136e-02  -4.5001584200422974e-02  -4.2448153222198332e-02  -4.5120330938190116e-02  -4.5319136057563929e-02  -4.4965372641572972e-02  -4.8639954990323780e-02  -4.8496762051316034e-02  -4.5022005562682633e-02  -4.4402892626605600e-02  -4.2965945131447046e-02  -4.5795593069375799e-02  -4.3400801383511101e-02  -4.6537027594660905e-02  -4.3848880401518221e-02  -4.2738352884378147e-02  -4.5596528175870780e-02  -4.3090529059871555e-02  -4.6291260808475260e-02  -4.3503171679166369e-02  -4.9200148672936060e-02  -4.6072031978810435e-02  -4.5114450626648379e-02  -4.5881342022926021e-02  -4.6918688356574596e-02  -4.5993553962013038e-02  -4.7069090423508798e-02  -4.4467942477568703e-02  -3.9787530863458299e-02  -4.4702978450041363e-02  -3.9822169797274931e-02  -4.4924161540873787e-02  -3.7370959353203288e-02  -4.5065149716083955e-02  -4.5121150528403743e-02  -4.1161643239440333e-02  -3.9437922320552002e-02  -3.7195515345664835e-02  -4.4933551885511194e-02  -4.0231475151931123e-02  -4.6863870268245220e-02  -3.8837028743702186e-02  -4.6970552464133085e-02  -3.6966891519878843e-02  -3.7172159084772664e-02  -3.6210601569971280e-02  -4.2121200177917026e-02  -3.8128735251360804e-02  -4.2326143419429939e-02  -3.0507525112997039e-02  -5.0150327704689919e-02  -1.1668568158745223e-02  -4.4820519584723134e-02  -5.0148122618292920e-02  -3.8767790354327980e-02  -3.6024288779919297e-02  -4.0642277595800372e-02  -3.8747469729013280e-02  -4.5400939210569424e-02  -4.5398696837010838e-02  -4.3986062379533994e-02  -4.7179878196411153e-02  -4.5364365749991489e-02  -4.6230449623001997e-02  -4.4743464284777087e-02  -4.2943343147196299e-02  -4.1907570085972172e-02  -4.4921720844085959e-02  -4.3217729114001756e-02  -4.0918968923893718e-02  -4.1703726658273980e-02  -4.0029320894401837e-02  -4.0830470923442379e-02  -3.9668771615132929e-02  -4.0357971632556319e-02  -3.9949455251168574e-02  -4.0627399238076088e-02  -3.7433974681347106e-02  -4.1942210399726003e-02  -4.2309672041746890e-02  -4.1267253699951982e-02  -3.0852599492514465e-02  -4.0146035840985306e-02  -3.7618510087518396e-02  -3.8423514441305685e-02  -3.5564636810460751e-02  -1.0642950440647475e-02  -1.2404757695617150e-02  -1.1743211499572463e-02  -4.4318634554018126e-02  -3.8853459055412584e-02  -4.7826602128930931e-02  -4.2757642157670826e-02  -4.5690333498958936e-02  -3.2192814210524619e-02  -3.2994979985946034e-02  -3.3786530248666007e-02  -3.8877894608603768e-02  -4.2233885246759834e-02  -4.5181457640623680e-02  -4.3493748828696749e-02  -3.8862776015419778e-02  -4.1344078439077926e-02  -4.1973041820009813e-02  -4.1271149689226565e-02  -3.9430436204008351e-02  -4.0566856534622227e-02  -3.7140660072092699e-02  -3.9696125232641946e-02  -4.0137333132137916e-02  -4.0566753184662768e-02  -3.8695415380485571e-02  -4.1061476026793942e-02  -3.7538162319354099e-02  -4.1161094853238725e-02  -4.1677816393178274e-02  -4.3028791299820221e-02  -4.1065815747908525e-02  -4.4455969401898068e-02  -4.0424266494545280e-02  -4.5402756878264949e-02  -3.8915015561868931e-02  -4.3997991311401252e-02  -4.3394009647741989e-02  -4.5055937207590727e-02  -4.2770296609384750e-02  -4.9390741395771001e-02  -4.7724204792531151e-02  -3.6230058911785747e-02  -3.3673307295949632e-02  -4.3390070149053064e-02  -4.2770902498093184e-02  -4.7533926457323898e-02  -3.9308519778711727e-02  -4.8184234207314505e-02  -3.5423273637294798e-02  -3.9371272145488599e-02  -4.0631979271038156e-02  -4.5911885669259939e-02  -3.4611092339480044e-02  -4.1285384222186104e-02  -3.8634554097079714e-02  -3.7567541921738251e-02  -3.7491924270219711e-02  -3.9327752023744736e-02  -4.1420917713939312e-02  -3.6947338219176583e-02  -3.9905234143613653e-02  -3.89425450360