<?xml version="1.0"?>
<VTKFile type="UnstructuredGrid"  version="0.1"  >
<UnstructuredGrid>
<Piece  NumberOfPoints="1297" NumberOfCells="2496">
<Points>
<DataArray  type="Float64"  NumberOfComponents="3"  format="ascii">0 0 0  0 1 0  1 1 0  1 0 0  1.1 -0.1 0  -0.1 -0.1 0  1.1 1.1 0  -0.1 1.1 0  0.2862352915841389 0.6707125476666118 0  0.28699031848681 0.329758253667369 0  0.714370779133322 0.328909731639354 0  0.714357069243133 0.6712876728788372 0  0.5003958252223368 0.5001557000996136 0  0 0.9499999999997918 0  0 0.8999999999995836 0  0 0.8499999999996529 0  0 0.7999999999999998 0  0 0.7500000000003466 0  0 0.7000000000006934 0  0 0.6500000000010401 0  0 0.6000000000013869 0  0 0.5500000000017335 0  0 0.5000000000020587 0  0 0.4500000000018723 0  0 0.4000000000016644 0  0 0.3500000000014564 0  0 0.3000000000012483 0  0 0.2500000000010403 0  0 0.2000000000008322 0  0 0.1500000000006241 0  0 0.100000000000416 0  0 0.05000000000020799 0  0.04999999999989965 0 0  0.09999999999981467 0 0  0.1499999999997036 0 0  0.1999999999995579 0 0  0.2499999999994121 0 0  0.2999999999992664 0 0  0.3499999999991206 0 0  0.3999999999989749 0 0  0.4499999999988292 0 0  0.4999999999986943 0 0  0.5499999999988151 0 0  0.5999999999989468 0 0  0.6499999999990784 0 0  0.69999999999921 0 0  0.7499999999993417 0 0  0.7999999999994734 0 0  0.8499999999996051 0 0  0.8999999999997368 0 0  0.9499999999998684 0 0  1 0.04999999999989965 0  1 0.09999999999981467 0  1 0.1499999999997036 0  1 0.1999999999995579 0  1 0.2499999999994121 0  1 0.2999999999992664 0  1 0.3499999999991206 0  1 0.3999999999989749 0  1 0.4499999999988292 0  1 0.4999999999986943 0  1 0.5499999999988151 0  1 0.5999999999989468 0  1 0.6499999999990784 0  1 0.69999999999921 0  1 0.7499999999993417 0  1 0.7999999999994734 0  1 0.8499999999996051 0  1 0.8999999999997368 0  1 0.9499999999998684 0  0.9499999999997918 1 0  0.8999999999995836 1 0  0.8499999999996529 1 0  0.7999999999999998 1 0  0.7500000000003466 1 0  0.7000000000006934 1 0  0.6500000000010401 1 0  0.6000000000013869 1 0  0.5500000000017335 1 0  0.5000000000020587 1 0  0.4500000000018723 1 0  0.4000000000016644 1 0  0.3500000000014564 1 0  0.3000000000012483 1 0  0.2500000000010403 1 0  0.2000000000008322 1 0  0.1500000000006241 1 0  0.100000000000416 1 0  0.05000000000020799 1 0  -0.1 1.05000000000004 0  -0.1 1.000000000000079 0  -0.1 0.9500000000001624 0  -0.1 0.9000000000003032 0  -0.1 0.850000000000444 0  -0.1 0.8000000000005848 0  -0.1 0.7500000000007256 0  -0.1 0.7000000000008665 0  -0.1 0.6500000000010508 0  -0.1 0.6000000000012352 0  -0.1 0.5500000000014196 0  -0.1 0.500000000001539 0  -0.1 0.4500000000014195 0  -0.1 0.4000000000013 0  -0.1 0.3500000000011588 0  -0.1 0.3000000000010178 0  -0.1 0.2500000000008986 0  -0.1 0.2000000000007579 0  -0.1 0.1500000000006174 0  -0.1 0.1000000000005272 0  -0.1 0.05000000000040083 0  -0.1 2.671196597248127e-13 0  -0.1 -0.0499999999998666 0  -0.0500000000000906 -0.1 0  -1.730560139634463e-13 -0.1 0  0.04999999999975802 -0.1 0  0.09999999999961506 -0.1 0  0.1499999999994613 -0.1 0  0.199999999999302 -0.1 0  0.2499999999991446 -0.1 0  0.2999999999990088 -0.1 0  0.3499999999988296 -0.1 0  0.3999999999986936 -0.1 0  0.4499999999985143 -0.1 0  0.4999999999984002 -0.1 0  0.5499999999985247 -0.1 0  0.5999999999986493 -0.1 0  0.6499999999987955 -0.1 0  0.6999999999989417 -0.1 0  0.7499999999990659 -0.1 0  0.7999999999992116 -0.1 0  0.8499999999993573 -0.1 0  0.8999999999994526 -0.1 0  0.949999999999584 -0.1 0  0.9999999999997226 -0.1 0  1.049999999999861 -0.1 0  1.1 -0.0500000000000906 0  1.1 -1.730560139634463e-13 0  1.1 0.04999999999975802 0  1.1 0.09999999999961506 0  1.1 0.1499999999994613 0  1.1 0.199999999999302 0  1.1 0.2499999999991446 0  1.1 0.2999999999990088 0  1.1 0.3499999999988296 0  1.1 0.3999999999986936 0  1.1 0.4499999999985143 0  1.1 0.4999999999984002 0  1.1 0.5499999999985247 0  1.1 0.5999999999986493 0  1.1 0.6499999999987955 0  1.1 0.6999999999989417 0  1.1 0.7499999999990659 0  1.1 0.7999999999992116 0  1.1 0.8499999999993573 0  1.1 0.8999999999994526 0  1.1 0.949999999999584 0  1.1 0.9999999999997226 0  1.1 1.049999999999861 0  1.05000000000004 1.1 0  1.000000000000079 1.1 0  0.9500000000001624 1.1 0  0.9000000000003032 1.1 0  0.850000000000444 1.1 0  0.8000000000005848 1.1 0  0.7500000000007256 1.1 0  0.7000000000008665 1.1 0  0.6500000000010508 1.1 0  0.6000000000012352 1.1 0  0.5500000000014196 1.1 0  0.500000000001539 1.1 0  0.4500000000014195 1.1 0  0.4000000000013 1.1 0  0.3500000000011588 1.1 0  0.3000000000010178 1.1 0  0.2500000000008986 1.1 0  0.2000000000007579 1.1 0  0.1500000000006174 1.1 0  0.1000000000005272 1.1 0  0.05000000000040083 1.1 0  2.671196597248127e-13 1.1 0  -0.0499999999998666 1.1 0  0.2772232693265551 0.6568638758404064 0  0.2696285279968396 0.6380664529063663 0  0.263919418511946 0.6170164152806361 0  0.2598156071587633 0.5945956938542789 0  0.2569118344080363 0.5714480744663408 0  0.254979321209556 0.54785347980025 0  0.2538878825309448 0.5240067924446333 0  0.253570976732359 0.5000734922744896 0  0.2540055668144082 0.4761200758836549 0  0.2552161270598685 0.4522739567952905 0  0.2572848336008429 0.4287029503323346 0  0.2603283457107557 0.405585142206435 0  0.2645790802481138 0.3832155125572362 0  0.2703823059252395 0.3621868519270657 0  0.2780510196467561 0.3434938325631289 0  0.3001254412020381 0.3198760035781305 0  0.3178747059725438 0.3109943553098567 0  0.3381358591927473 0.3037485181511206 0  0.3597961487891131 0.2978979192616909 0  0.3823213143627716 0.2931975126847488 0  0.4053993529589235 0.289472133955481 0  0.4288333210277353 0.2866213922742852 0  0.452522630633782 0.2845790630249855 0  0.4763639399855739 0.2833271860039275 0  0.5002817482172033 0.2828582888787532 0  0.5242073153836049 0.2831715266718323 0  0.5480658278910036 0.2842691797502697 0  0.5717940922920017 0.2861719671685877 0  0.5952697626367499 0.2889007238134285 0  0.6183977767910278 0.2925168373288968 0  0.6410061309402972 0.2971169994531613 0  0.6627805669041223 0.3029015111128312 0  0.6831912417350223 0.3101049187019048 0  0.7010523185169665 0.3189810542491567 0  0.7233964568809748 0.3429436068374459 0  0.7310628808584887 0.3616631883070734 0  0.7368591446630772 0.3828309851203156 0  0.7410831071861874 0.4053357546260534 0  0.7440899800173822 0.4285536829941862 0  0.7461085832129929 0.4521967392273005 0  0.7472759834195578 0.4760868174464202 0  0.747662816435297 0.5000944773488831 0  0.7472893288383294 0.524108532899611 0  0.7461321446117432 0.5480194991903156 0  0.7441296736161396 0.5716687420923112 0  0.7411163563887052 0.5948890999071433 0  0.7368974797924237 0.6173623425410318 0  0.7311028509513459 0.6385299367743136 0  0.7234230936970468 0.6572457634512007 0  0.701052181337858 0.6812519113865563 0  0.6831798781956948 0.6901687940171637 0  0.6627953044547524 0.6974179859699584 0  0.6410242823651026 0.7032166603965472 0  0.6184164180751188 0.7078414516753592 0  0.5952764201257678 0.7114772705278692 0  0.5717728864432458 0.7142260197865461 0  0.5480294366198194 0.7161381269940326 0  0.5241510255498815 0.7172467427883999 0  0.5002075858592874 0.7175684488030907 0  0.4762713125039918 0.717109307136253 0  0.4524164776111134 0.7158671118785369 0  0.4287070415728882 0.7138395514575385 0  0.405239028149814 0.7109908809627615 0  0.3821252568980331 0.7072801224170786 0  0.3595330874273709 0.702592508939334 0  0.3377712141892956 0.6967529586116546 0  0.3173946791840958 0.6895079473681676 0  0.2994970844689637 0.6806291898860214 0  0.3714288209569848 0.3191030765790261 0  0.2788560979662039 0.440297333209665 0  0.3712139289582005 0.681318909049103 0  0.2785943370801323 0.5598816740345217 0  0.7218642480374168 0.5831158530505829 0  0.6065280982101792 0.6865756831008347 0  0.6284094264488669 0.3179246553922549 0  0.7239308693527035 0.4394309218033987 0  0.7251284303799705 0.5115311443841931 0  0.5590607585568296 0.3081452506609129 0  0.4418733495137978 0.3104962657183786 0  0.4403820152026192 0.690284019898759 0  0.5359727372115307 0.6925091318935982 0  0.2766612648032261 0.488069614981931 0  0.2824318763955857 0.3938361789073359 0  0.4885944336894348 0.3104631620334782 0  0.2875394419610675 0.6047003657448687 0  0.7130963026483804 0.3915739711528593 0  0.4883249160775391 0.6930611970287377 0  0.6517953537460314 0.6777390985539138 0  0.3275094563973603 0.3309439878021921 0  0.6737951184168551 0.331647231822455 0  0.3277100310946791 0.6717235461397194 0  0.7122535854704755 0.6301958845962132 0  0.2924245826513356 0.351293284852968 0  0.2938817230573518 0.6479080370743483 0  0.6930633543196544 0.666600565649726 0  0.7094440080004683 0.3502703335852784 0  0.348982638368228 0.6768520950315903 0  0.3602494730400406 0.6569712724290724 0  0.3827185239846393 0.6599906372462861 0  0.3708519637763555 0.6359263287126338 0  0.3945414341325847 0.6381010143986088 0  0.3814370668808483 0.611741652908785 0  0.4099551437455096 0.6134837612810261 0  0.3939038152575514 0.5822336980769991 0  0.3536142909076041 0.6091010766407655 0  0.4287533106616763 0.5829916859896832 0  0.408631818180938 0.5474582330811307 0  0.3680186395082212 0.5526003275912869 0  0.3854195744517371 0.514173428227685 0  0.347132256815451 0.5162125106738361 0  0.3604439593436292 0.4821404788074734 0  0.4007567815783651 0.476933848329828 0  0.3791769273946775 0.4448058228103194 0  0.4159075560450174 0.4393900661707673 0  0.3951025238125984 0.4090468534868715 0  0.4288023686023623 0.397114031376693 0  0.3604087649489529 0.4108277158871607 0  0.4038950224648046 0.3765658205662887 0  0.4378645004934618 0.6161655493005237 0  0.4644951052509929 0.5911073195097271 0  0.4834166456880326 0.6172608766640508 0  0.5025814241073094 0.5928317149910579 0  0.5208142408198472 0.6174935881123554 0  0.5397595523560349 0.5931912068553866 0  0.5576758511022979 0.6178935514007694 0  0.5763472693373837 0.593905604287679 0  0.5947926905407456 0.6208262462667529 0  0.6122628835716265 0.5878847056681016 0  0.5957209262039066 0.5
[...]
<PointData  Scalars="state"> 
<DataArray  type="Float64"  Name="state"  format="ascii">0.0000000000000000e+00  0.0000000000000000e+00  0.0000000000000000e+00  0.0000000000000000e+00  0.0000000000000000e+00  0.0000000000000000e+00  0.0000000000000000e+00  0.0000000000000000e+00  -3.3693651725153241e-02  -3.3653238560278347e-02  -3.3909691493069313e-02  -3.3910805622432101e-02  -6.9821799126763206e-03  0.0000000000000000e+00  0.0000000000000000e+00  0.0000000000000000e+00  0.0000000000000000e+00  0.0000000000000000e+00  0.0000000000000000e+00  0.0000000000000000e+00  0.0000000000000000e+00  0.0000000000000000e+00  0.0000000000000000e+00  0.0000000000000000e+00  0.0000000000000000e+00  0.0000000000000000e+00  0.0000000000000000e+00  0.0000000000000000e+00  0.0000000000000000e+00  0.0000000000000000e+00  0.0000000000000000e+00  0.0000000000000000e+00  0.0000000000000000e+00  0.0000000000000000e+00  0.0000000000000000e+00  0.0000000000000000e+00  0.0000000000000000e+00  0.0000000000000000e+00  0.0000000000000000e+00  0.0000000000000000e+00  0.0000000000000000e+00  0.0000000000000000e+00  0.0000000000000000e+00  0.0000000000000000e+00  0.0000000000000000e+00  0.0000000000000000e+00  0.0000000000000000e+00  0.0000000000000000e+00  0.0000000000000000e+00  0.0000000000000000e+00  0.0000000000000000e+00  0.0000000000000000e+00  0.0000000000000000e+00  0.0000000000000000e+00  0.0000000000000000e+00  0.0000000000000000e+00  0.0000000000000000e+00  0.0000000000000000e+00  0.0000000000000000e+00  0.0000000000000000e+00  0.0000000000000000e+00  0.0000000000000000e+00  0.0000000000000000e+00  0.0000000000000000e+00  0.0000000000000000e+00  0.0000000000000000e+00  0.0000000000000000e+00  0.0000000000000000e+00  0.0000000000000000e+00  0.0000000000000000e+00  0.0000000000000000e+00  0.0000000000000000e+00  0.0000000000000000e+00  0.0000000000000000e+00  0.0000000000000000e+00  0.0000000000000000e+00  0.0000000000000000e+00  0.0000000000000000e+00  0.0000000000000000e+00  0.0000000000000000e+00  0.0000000000000000e+00  0.0000000000000000e+00  0.0000000000000000e+00  0.0000000000000000e+00  0.0000000000000000e+00  0.0000000000000000e+00  0.0000000000000000e+00  0.0000000000000000e+00  0.0000000000000000e+00  0.0000000000000000e+00  0.0000000000000000e+00  0.0000000000000000e+00  0.0000000000000000e+00  0.0000000000000000e+00  0.0000000000000000e+00  0.0000000000000000e+00  0.0000000000000000e+00  0.0000000000000000e+00  0.0000000000000000e+00  0.0000000000000000e+00  0.0000000000000000e+00  0.0000000000000000e+00  0.0000000000000000e+00  0.0000000000000000e+00  0.0000000000000000e+00  0.0000000000000000e+00  0.0000000000000000e+00  0.0000000000000000e+00  0.0000000000000000e+00  0.0000000000000000e+00  0.0000000000000000e+00  0.0000000000000000e+00  0.0000000000000000e+00  0.0000000000000000e+00  0.0000000000000000e+00  0.0000000000000000e+00  0.0000000000000000e+00  0.0000000000000000e+00  0.0000000000000000e+00  0.0000000000000000e+00  0.0000000000000000e+00  0.0000000000000000e+00  0.0000000000000000e+00  0.0000000000000000e+00  0.0000000000000000e+00  0.0000000000000000e+00  0.0000000000000000e+00  0.0000000000000000e+00  0.0000000000000000e+00  0.0000000000000000e+00  0.0000000000000000e+00  0.0000000000000000e+00  0.0000000000000000e+00  0.0000000000000000e+00  0.0000000000000000e+00  0.0000000000000000e+00  0.0000000000000000e+00  0.0000000000000000e+00  0.0000000000000000e+00  0.0000000000000000e+00  0.0000000000000000e+00  0.0000000000000000e+00  0.0000000000000000e+00  0.0000000000000000e+00  0.0000000000000000e+00  0.0000000000000000e+00  0.0000000000000000e+00  0.0000000000000000e+00  0.0000000000000000e+00  0.0000000000000000e+00  0.0000000000000000e+00  0.0000000000000000e+00  0.0000000000000000e+00  0.0000000000000000e+00  0.0000000000000000e+00  0.0000000000000000e+00  0.0000000000000000e+00  0.0000000000000000e+00  0.0000000000000000e+00  0.0000000000000000e+00  0.0000000000000000e+00  0.0000000000000000e+00  0.0000000000000000e+00  0.0000000000000000e+00  0.0000000000000000e+00  0.0000000000000000e+00  0.0000000000000000e+00  0.0000000000000000e+00  0.0000000000000000e+00  0.0000000000000000e+00  0.0000000000000000e+00  0.0000000000000000e+00  0.0000000000000000e+00  0.0000000000000000e+00  0.0000000000000000e+00  0.0000000000000000e+00  0.0000000000000000e+00  0.0000000000000000e+00  0.0000000000000000e+00  0.0000000000000000e+00  0.0000000000000000e+00  -3.2451462074528405e-02  -3.1165810943287374e-02  -2.9798630221511052e-02  -2.8549215332362696e-02  -2.7540709009031224e-02  -2.6811820448434252e-02  -2.6333203085689618e-02  -2.6280341135643509e-02  -2.6384017728212694e-02  -2.6858345410770670e-02  -2.7599199118871855e-02  -2.8570746791680104e-02  -2.9717089693299233e-02  -3.1048891070827336e-02  -3.2331488092821298e-02  -3.2882278406658617e-02  -3.1917003516340227e-02  -3.0859277364465223e-02  -2.9866506819638330e-02  -2.9003499127294198e-02  -2.8196444590964813e-02  -2.7548271892763949e-02  -2.7125934677641930e-02  -2.6810260784836441e-02  -2.6721728513209305e-02  -2.6811011282309619e-02  -2.7108253242089191e-02  -2.7608919164015987e-02  -2.8230582325184269e-02  -2.9125241043570640e-02  -3.0094165384130234e-02  -3.1082441170495974e-02  -3.2149236841794576e-02  -3.3113389266874627e-02  -3.2709237445333682e-02  -3.1340200392737376e-02  -2.9970172018492679e-02  -2.8697702597134028e-02  -2.7693781939745973e-02  -2.6952365502129594e-02  -2.6526746894941011e-02  -2.6358440008542261e-02  -2.6508915436922065e-02  -2.7014117029109184e-02  -2.7748823411176255e-02  -2.8718091423678156e-02  -3.0014811902071819e-02  -3.1390321827503245e-02  -3.2749740429912834e-02  -3.3093106611055703e-02  -3.2137098386872065e-02  -3.1132292646272274e-02  -3.0115878640646594e-02  -2.9128596628840427e-02  -2.8212854735406290e-02  -2.7591757307166155e-02  -2.7058976268649702e-02  -2.6744717163369836e-02  -2.6668702044246557e-02  -2.6785952548635607e-02  -2.7068573656544210e-02  -2.7449662302553052e-02  -2.8121862863555957e-02  -2.8953756776642210e-02  -2.9830733534961691e-02  -3.0856376982238080e-02  -3.1938999778870526e-02  -3.2907769051819906e-02  -2.4407352451123653e-02  -2.2760230160810507e-02  -2.4400810353520042e-02  -2.2749771870026296e-02  -2.4120413631775493e-02  -2.3693422843667586e-02  -2.4572497482362909e-02  -2.3080337005580900e-02  -2.1997278282821376e-02  -2.2294333494823151e-02  -2.1910657451830674e-02  -2.1938120093815003e-02  -2.1640691771797525e-02  -2.1831393631129348e-02  -2.5176864587481806e-02  -2.0878530553894738e-02  -2.4228741497773966e-02  -2.4669188129968735e-02  -2.1378666916469162e-02  -2.5826974650353204e-02  -2.6675685304837209e-02  -2.6613650945129547e-02  -2.6956049903556063e-02  -2.6701508076004507e-02  -2.8321233835645946e-02  -2.7751893578769452e-02  -2.8764786242448326e-02  -2.8616357008346607e-02  -2.5586902428712713e-02  -2.2089935161961050e-02  -2.0833609341378439e-02  -1.9160713285468860e-02  -1.7819956541740289e-02  -1.6268197526147606e-02  -1.4721196709066357e-02  -1.3268582038943409e-02  -1.8081441902802840e-02  -1.1453832902275307e-02  -1.0500884901001546e-02  -1.3482818178342026e-02  -1.1118603374756904e-02  -1.4313414482657369e-02  -1.3182003231815693e-02  -1.0266899717857023e-02  -1.2726672214754053e-02  -1.0719993927804355e-02  -1.3832254342862203e-02  -1.3010239770185877e-02  -1.6205677017527592e-02  -1.6115697097341571e-02  -1.3738046218370372e-02  -1.0900564240945942e-02  -1.2873006625665108e-02  -1.0710336722278389e-02  -1.2999565187119082e-02  -1.1222435987083518e-02  -1.3845657336606818e-02  -1.2503206421051119e-02  -1.5619872069015621e-02  -1.3991304984392845e-02  -1.1060547508823151e-02  -1.3528215089758116e-02  -1.1100872292717017e-02  -1.6519812218140507e-02  -1.6645808600350157e-02  -1.7373397882473097e-02  -1.6535203901943043e-02  -1.6414042685056626e-02  -1.7490050476251975e-02  -1.5340968977821624e-02  -1.2587195503882646e-02  -1.9768424211300480e-02  -1.8032646139273214e-02  -1.6046393757778520e-02  -1.6813051575157400e-02  -1.5576294364205222e-02  -1.2152035648533182e-02  -1.5868175413337824e-02  -1.3040773381474604e-02  -9.7941891491759858e-03  -1.1725062421733183e-02  -1.4520985230706423e-02  -1.4085200136593716e-02  -1.0491622070700701e-02  -1.3634429141880774e-02  -1.6511211447436547e-02  -1.6568415673647571e-02  -1.4640820079271243e-02  -1.9083415036955501e-02  -1.9567397225805229e-02  -2.1719317587876905e-02  -2.1796568254809197e-02  -9.0512780037585068e-03  -1.9525022474629131e-02  -1.9583797036597128e-02  -1.9737968014765447e-02  -1.7803641939257042e-02  -2.1934090143564289e-02  -2.2468717491294921e-02  -2.0766288939069261e-02  -1.6205537048788278e-02  -1.8650135338000470e-02  -2.0385504188477184e-02  -1.7858467336054163e-02  -1.5922347297372200e-02  -1.8496771582984517e-02  -1.9320784091772257e-02  -1.6120005386968339e-02  -1.8399146361977769e-02  -2.1095002071162609e-02  -2.1875903300183738e-02  -2.0539379721582856e-02  -1.9684291533724599e-02  -1.8848856552886692e-02  -2.0633374135792387e-02  -1.6740181288232334e-02  -8.4927941975266180e-03  -2.1010549364218246e-02  -8.5010812124873460e-03  -1.4157652914374066e-02  -1.7180345419708056e-02  -1.4668377526664016e-02  -1.7361656462869551e-02  -1.9431845375940719e-02  -2.0032693748738954e-02  -1.8597277886613507e-02  -1.7032314953261244e-02  -1.8691413889463413e-02  -1.8725745402961031e-02  -1.0085870031005903e-02  -2.3884501963216492e-02  -2.4230380699060163e-02  -1.7490610006603735e-02  -2.0015129096736712e-02  -1.9492724377465607e-02  -1.7633152515165607e-02  -1.8391559925626574e-02  -2.1095682022028037e-02  -1.9294064574568986e-02  -2.1272540415066672e-02  -2.1312741589701329e-02  -2.3313333335347460e-02  -2.5150766980658528e-02  -2.5447155167690354e-02  -1.9312584737026947e-02  -2.1419566771616882e-02  -2.1649455709394517e-02  -2.3241473060655871e-02  -2.5558640103837821e-02  -2.6488499705954800e-02  -2.2536606841932136e-02  -1.9080461493210094e-02  -1.6844262649024510e-02  -2.4593152916676277e-02  -2.3373701571370739e-02  -2.2085181060985941e-02  -2.5816987856228910e-02  -2.1815294116685178e-02  -2.1440047336240296e-02  -2.3577116832231952e-02  -2.6440198182172754e-02  -2.3343959374729658e-02  -2.1570126876727221e-02  -2.3778338029049616e-02  -2.0899700452192357e-02  -2.2816284977483742e-02  -2.0358274405931180e-02  -2.2208725973279636e-02  -2.4836789855155660e-02  -2.7157547710971466e-02  -2.5551105246118339e-02  -2.1548211716277552e-02  -1.7753070911078420e-02  -2.3762396816397684e-02  -2.3609024615176336e-02  -2.1975664918037693e-02  -2.8547102312154682e-02  -2.8556668246063642e-02  -2.8614768854497898e-02  -2.8747683806623684e-02  -2.2749207409545967e-02  -9.7234675833008030e-03  -8.0398886139279365e-03  -1.9291624494245919e-02  -2.3572641220223740e-02  -2.4000729110824601e-02  -2.3465008978926605e-02  -2.6864804261564360e-02  -2.1926434420862340e-02  -2.2569043206401070e-02  -1.8227016196003511e-02  -1.7562827301887903e-02  -2.1587043141904839e-02  -1.6835519387443543e-02  -8.7899359719021825e-03  -8.9087461574825499e-03  -1.2172298773800234e-02  -2.0650405794097222e-02  -2.2521131349288442e-02  -1.8568306356418717e-02  -2.0089640541131621e-02  -1.8660196789843004e-02  -2.2317706475035351e-02  -2.2281302205372864e-02  -9.2947715250012546e-03  -2.4130423109914863e-02  -1.9077786501225286e-02  -2.0338513863925371e-02  -1.6218924314447623e-02  -2.2190478864118741e-02  -1.6302579249072351e-02  -1.2090806086698535e-02  -2.2800189231586578e-02  -7.6980257462201654e-03  -1.5468193267316162e-02  -2.6196673187740115e-02  -1.6711265544809385e-02  -1.8940836470694871e-02  -1.9600673011276163e-02  -9.5586192324091778e-03  -2.2663075558596989e-02  -2.1236819333900463e-02  -1.8698303722073411e-02  -7.4456706325715123e-03  -2.0300435278709686e-02  -1.9504383186170406e-02  -8.0155264311950677e-03  -1.5818505968076855e-02  -1.8552006918205011e-02  -7.4855013638190533e-03  -1.6063129945292253e-02  -2.0952538742863049e-02  -2.1860479572137645e-02  -1.8439500435845066e-02  -1.5181582830384982e-02  -1.9107744026652763e-02  -2.3145097770966870e-02  -1.6582444882332674e-02  -3.0210492022250495e-02  -3.0372007288485027e-02  -3.0210000927868696e-02  -3.0431289937172736e-02  -2.1445577742693941e-02  -2.4161039369757480e-02  -2.0780049125817726e-02  -2.2745481323358331e-02  -1.9494242224874545e-02  -1.5251476710649225e-02  -2.3552870734791651e-02  -2.2239614441591362e-02  -1.8565233549462230e-02  -1.4270059106717038e-02  -1.5482784736807165e-02  -1.3880125640078025e-02  -2.1615725943277004e-02  -1.4216774275135041e-02  -1.9533764587328566e-02  -1.3730554358372992e-02  -7.6343936737957273e-03  -1.8757758782044550e-02  -1.6087263005276260e-02  -1.7807755827247321e-02  -1.8843593499421732e-02  -1.5053543094438038e-02  -1.4380896526258609e-02  -8.7183151832931696e-03  -2.5096501061918016e-02  -3.1629013077515714e-02  -3.2062586854121590e-02  -3.4223356653232714e-02  -3.7038675747312740e-02  -3.4226599570237236e-02  -3.7698213769951888e-02  -3.1956152888886140e-02  -3.3817008367907145e-02  -3.1914680677293764e-02  -3.3950978560600115e-02  -3.7229818738758649e-02  -3.6933830443595821e-02  -1.6933037173241381e-02  -1.5069015094866961e-02  -1.8194876320287032e-02  -1.5698941711111435e-02  -3.1247215211753266e-02  -3.5538325485969663e-02  -3.5783516226643629e-02  -3.1330880169791554e-02  -4.0644670139143815e-02  -4.5127350335905439e-02  -3.2053042351238827e-02  -3.1827492021907301e-02  -3.7466402584019960e-02  -4.6172687496446263e-02  -4.8623610624039061e-02  -4.8619733800430311e-02  -5.0257145702053856e-02  -5.0642919703328154e-02  -1.8392771782878126e-02  -1.7837366145823218e-02  -1.8377689328200709e-02  -1.7841249877288905e-02  -1.6923834862922271e-02  -1.6501437868183279e-02  -1.7515306596666589e-02  -5.0397325552271513e-02  -5.1028028597542477e-02  -4.8244024287210363e-02  -4.6518354098680846e-02  -1.8404542084334088e-02  -1.7758243775249979e-02  -1.7061858199882176e-02  -1.6643647882096439e-02  -1.8033977626474795e-02  -1.7002603462980496e-02  -1.9502625268084883e-02  -1.6363734613722831e-02  -4.6613244512749515e-02  -4.5471773168423102e-02  -1.8334234237293179e-02  -1.6477165284290950e-02  -1.8358699459933032e-02  -4.1235260804476523e-02  -4.4941966645333446e-02  -4.7409200750819121e-02  -4.9170799954164290e-02  -5.0350658393890108e-02  -5.0390522912549765e-02  -4.9461155929725414e-02  -5.0471539186554989e-02  -5.0719546861335361e-02  -4.8778631938452104e-02  -4.1217564080287747e-02  -4.5188650488242783e-02  -4.7470192731268589e-02  -4.9212125339474215e-02  -4.7774803426373212e-02  -5.0434240989605229e-02  -5.0463368626692082e-02  -5.0696390801041553e-02  -5.0879462936427255e-02  -4.9136327845936613e-02  -3.3701942426160300e-02  -4.0699351075030830e-02  -4.5193337408908060e-02  -4.6266611619440505e-02  -4.8790843485177357e-02  -4.8764030884301639e-02  -5.0428975488123223e-02  -5.0828282904206316e-02  -5.0638765384314617e-02  -5.1049018226144903e-02  -3.0606257514136561e-02  -3.0922309371777007e-02  -3.2816967454034264e-02  -3.2961200041518805e-02  -4.9470756899240173e-02  -4.9503100241863968e-02  -4.9795377585708241e-02  -4.9070572792350726e-02  -4.9233843994198605e-02  -4.9929153452499112e-02  -1.7699021688286531e-02  -4.9046224404414418e-02  -5.1001131408562973e-02  -4.8797818524809133e-02  -4.8791277186784388e-02  -5.0490941001882311e-02  -4.9220852140880962e-02  -3.3750513609591151e-02  -4.5991485309218524e-02  -4.5957958474477527e-02  -1.4596779886290556e-02  -1.3614099120490305e-02  -1.4612564182840068e-02  -4.4835424539274513e-02  -4.5716581055773330e-02  -4.2788744569094005e-02  -4.2051101837395757e-02  -4.7882544791554939e-02  -4.9784520960202208e-02  -4.7478900416603895e-02  -4.9309031170838145e-02  -4.6326513602455474e-02  -4.9269505335296122e-02  -4.6099499991518855e-02  -4.8661229204869920e-02  -4.5479891144407307e-02  -4.7401672649101875e-02  -4.6338527080001468e-02  -4.9172690004871310e-02  -4.6001576376671724e-02  -4.8360191991522375e-02  -4.5336915381242814e-02  -4.7427435998930581e-02  -4.4594302399640601e-02  -4.6656002768838724e-02  -4.4028011092431422e-02  -4.6144716629299948e-02  -4.3601097836939336e-02  -4.5911070378297815e-02  -4.3352458157208187e-02  -4.5997835620917471e-02  -4.4574414291633099e-02  -4.6540281977414250e-02  -4.3912981121915190e-02  -4.5987813865665167e-02  -4.3444940378096819e-02  -4.5742195374732696e-02  -4.3152717852041202e-02  -4.5848892989510538e-02  -4.5129050061164577e-02  -4.4698835735805201e-02  -4.8368942377440813e-02  -4.8241233372602631e-02  -4.4838094709376539e-02  -4.4143342829781808e-02  -4.3621284349761064e-02  -4.6436193329792382e-02  -4.3962043420014231e-02  -4.7053554190053526e-02  -4.4278816285431059e-02  -4.3405742516092617e-02  -4.6252090081705645e-02  -4.3666648323288614e-02  -4.6826326865498306e-02  -4.3956957380449718e-02  -4.8729812685385156e-02  -4.5686353950133707e-02  -4.4650038850887461e-02  -4.6456507636507043e-02  -4.7358337800010759e-02  -4.6553398537253800e-02  -4.7496212988598373e-02  -4.5186924663375518e-02  -3.9801094439681904e-02  -4.5412689378351093e-02  -3.9828818011030449e-02  -4.5538090244053579e-02  -3.7980845124044774e-02  -4.5674427334914537e-02  -4.5230929782667392e-02  -4.1172131645517002e-02  -3.9262716835612978e-02  -3.7812808528616008e-02  -4.5034737959045765e-02  -4.0249715894798352e-02  -4.7188225355956362e-02  -3.8668758395268302e-02  -4.7287304387275207e-02  -3.6520025315211251e-02  -3.6747506691516850e-02  -3.5778247457108600e-02  -4.1641438846513897e-02  -3.7907305298976166e-02  -4.2009536921639119e-02  -3.0375762044766226e-02  -5.0120801888487145e-02  -1.1640298825879665e-02  -4.4333425544331492e-02  -5.0101896983898581e-02  -3.9149146774554826e-02  -3.5620998100324812e-02  -4.0220863101014921e-02  -3.9124680611956626e-02  -4.5248316154953776e-02  -4.5266535402266252e-02  -4.3603764705846919e-02  -4.6650029799868549e-02  -4.4858425956776839e-02  -4.5683551807654932e-02  -4.4219623375084137e-02  -4.2426955320952621e-02  -4.1419639179427432e-02  -4.4397081603648331e-02  -4.2747804279955393e-02  -4.0476710924154113e-02  -4.1295494517099962e-02  -3.9634205055890298e-02  -4.0466852628782662e-02  -3.9304619767092416e-02  -4.0018316391330258e-02  -3.9589709262846433e-02  -4.0339263196735982e-02  -3.7215656413198614e-02  -4.1632189555445454e-02  -4.1875419722759988e-02  -4.0881741788891611e-02  -3.0720492527902214e-02  -3.9788634365170369e-02  -3.7517746939772362e-02  -3.8314213421310077e-02  -3.5211140228431512e-02  -1.0617999341389458e-02  -1.2369811025949119e-02  -1.1711172111599213e-02  -4.3948587703231665e-02  -3.8943130305210849e-02  -4.7273965349107210e-02  -4.2249607726082217e-02  -4.5101202751661740e-02  -3.1944178493963006e-02  -3.2801703724905248e-02  -3.3542862482952712e-02  -3.8373376679805324e-02  -4.1670189754778930e-02  -4.4587734474637555e-02  -4.2931339048435636e-02  -3.8354440936851072e-02  -4.0839199551068017e-02  -4.1481614453397153e-02  -4.0818430616859198e-02  -3.8975303597884141e-02  -4.0138822550467718e-02  -3.6728472083396711e-02  -3.9280603023591591e-02  -3.9741292992410422e-02  -4.0155695677997628e-02  -3.8272429735818132e-02  -4.0609992924113915e-02  -3.7096255919304100e-02  -4.0661233730591204e-02  -4.1200505059930420e-02  -4.2488980065853846e-02  -4.0530826770736772e-02  -4.3866066060739298e-02  -3.9886766970916365e-02  -4.4811267265378985e-02  -3.8418072794072181e-02  -4.3474890052453155e-02  -4.3800746774837925e-02  -4.5352589154200054e-02  -4.3279657537452422e-02  -4.9542002044570016e-02  -4.7809420062553482e-02  -3.5812454116047887e-02  -3.3260671573360365e-02  -4.3782645919485684e-02  -4.3263842087676876e-02  -4.7486156847786613e-02  -3.8964115537369177e-02  -4.8465121044595244e-02  -3.5057782685368077e-02  -3.9687016481414122e-02  -4.0250649081582567e-02  -4.5316392661496736e-02  -3.4201233175229141e-02  -4.0855965025180928e-02  -3.8311339542384859e-02  -3.8012450590609918e-02  -3.7818257543018166e-02  -3.9628179898128800e-02  -4.1019800483364420e-02  -3.6616828745870439e-02  -3.9544054051553083e-02  -3.86097635973