<?xml version="1.0"?>
<VTKFile type="UnstructuredGrid"  version="0.1"  >
<UnstructuredGrid>
<Piece  NumberOfPoints="1297" NumberOfCells="2496">
<Points>
<DataArray  type="Float64"  NumberOfComponents="3"  format="ascii">0 0 0  0 1 0  1 1 0  1 0 0  1.1 -0.1 0  -0.1 -0.1 0  1.1 1.1 0  -0.1 1.1 0  0.2902990647282195 0.6680274072590091 0  0.2910547324182307 0.3324684886620116 0  0.710436010359891 0.3315568401345693 0  0.7104253189121252 0.6686594028346982 0  0.5004431702148586 0.500163604738683 0  0 0.9499999999997918 0  0 0.8999999999995836 0  0 0.8499999999996529 0  0 0.7999999999999998 0  0 0.7500000000003466 0  0 0.7000000000006934 0  0 0.6500000000010401 0  0 0.6000000000013869 0  0 0.5500000000017335 0  0 0.5000000000020587 0  0 0.4500000000018723 0  0 0.4000000000016644 0  0 0.3500000000014564 0  0 0.3000000000012483 0  0 0.2500000000010403 0  0 0.2000000000008322 0  0 0.1500000000006241 0  0 0.100000000000416 0  0 0.05000000000020799 0  0.04999999999989965 0 0  0.09999999999981467 0 0  0.1499999999997036 0 0  0.1999999999995579 0 0  0.2499999999994121 0 0  0.2999999999992664 0 0  0.3499999999991206 0 0  0.3999999999989749 0 0  0.4499999999988292 0 0  0.4999999999986943 0 0  0.5499999999988151 0 0  0.5999999999989468 0 0  0.6499999999990784 0 0  0.69999999999921 0 0  0.7499999999993417 0 0  0.7999999999994734 0 0  0.8499999999996051 0 0  0.8999999999997368 0 0  0.9499999999998684 0 0  1 0.04999999999989965 0  1 0.09999999999981467 0  1 0.1499999999997036 0  1 0.1999999999995579 0  1 0.2499999999994121 0  1 0.2999999999992664 0  1 0.3499999999991206 0  1 0.3999999999989749 0  1 0.4499999999988292 0  1 0.4999999999986943 0  1 0.5499999999988151 0  1 0.5999999999989468 0  1 0.6499999999990784 0  1 0.69999999999921 0  1 0.7499999999993417 0  1 0.7999999999994734 0  1 0.8499999999996051 0  1 0.8999999999997368 0  1 0.9499999999998684 0  0.9499999999997918 1 0  0.8999999999995836 1 0  0.8499999999996529 1 0  0.7999999999999998 1 0  0.7500000000003466 1 0  0.7000000000006934 1 0  0.6500000000010401 1 0  0.6000000000013869 1 0  0.5500000000017335 1 0  0.5000000000020587 1 0  0.4500000000018723 1 0  0.4000000000016644 1 0  0.3500000000014564 1 0  0.3000000000012483 1 0  0.2500000000010403 1 0  0.2000000000008322 1 0  0.1500000000006241 1 0  0.100000000000416 1 0  0.05000000000020799 1 0  -0.1 1.05000000000004 0  -0.1 1.000000000000079 0  -0.1 0.9500000000001624 0  -0.1 0.9000000000003032 0  -0.1 0.850000000000444 0  -0.1 0.8000000000005848 0  -0.1 0.7500000000007256 0  -0.1 0.7000000000008665 0  -0.1 0.6500000000010508 0  -0.1 0.6000000000012352 0  -0.1 0.5500000000014196 0  -0.1 0.500000000001539 0  -0.1 0.4500000000014195 0  -0.1 0.4000000000013 0  -0.1 0.3500000000011588 0  -0.1 0.3000000000010178 0  -0.1 0.2500000000008986 0  -0.1 0.2000000000007579 0  -0.1 0.1500000000006174 0  -0.1 0.1000000000005272 0  -0.1 0.05000000000040083 0  -0.1 2.671196597248127e-13 0  -0.1 -0.0499999999998666 0  -0.0500000000000906 -0.1 0  -1.730560139634463e-13 -0.1 0  0.04999999999975802 -0.1 0  0.09999999999961506 -0.1 0  0.1499999999994613 -0.1 0  0.199999999999302 -0.1 0  0.2499999999991446 -0.1 0  0.2999999999990088 -0.1 0  0.3499999999988296 -0.1 0  0.3999999999986936 -0.1 0  0.4499999999985143 -0.1 0  0.4999999999984002 -0.1 0  0.5499999999985247 -0.1 0  0.5999999999986493 -0.1 0  0.6499999999987955 -0.1 0  0.6999999999989417 -0.1 0  0.7499999999990659 -0.1 0  0.7999999999992116 -0.1 0  0.8499999999993573 -0.1 0  0.8999999999994526 -0.1 0  0.949999999999584 -0.1 0  0.9999999999997226 -0.1 0  1.049999999999861 -0.1 0  1.1 -0.0500000000000906 0  1.1 -1.730560139634463e-13 0  1.1 0.04999999999975802 0  1.1 0.09999999999961506 0  1.1 0.1499999999994613 0  1.1 0.199999999999302 0  1.1 0.2499999999991446 0  1.1 0.2999999999990088 0  1.1 0.3499999999988296 0  1.1 0.3999999999986936 0  1.1 0.4499999999985143 0  1.1 0.4999999999984002 0  1.1 0.5499999999985247 0  1.1 0.5999999999986493 0  1.1 0.6499999999987955 0  1.1 0.6999999999989417 0  1.1 0.7499999999990659 0  1.1 0.7999999999992116 0  1.1 0.8499999999993573 0  1.1 0.8999999999994526 0  1.1 0.949999999999584 0  1.1 0.9999999999997226 0  1.1 1.049999999999861 0  1.05000000000004 1.1 0  1.000000000000079 1.1 0  0.9500000000001624 1.1 0  0.9000000000003032 1.1 0  0.850000000000444 1.1 0  0.8000000000005848 1.1 0  0.7500000000007256 1.1 0  0.7000000000008665 1.1 0  0.6500000000010508 1.1 0  0.6000000000012352 1.1 0  0.5500000000014196 1.1 0  0.500000000001539 1.1 0  0.4500000000014195 1.1 0  0.4000000000013 1.1 0  0.3500000000011588 1.1 0  0.3000000000010178 1.1 0  0.2500000000008986 1.1 0  0.2000000000007579 1.1 0  0.1500000000006174 1.1 0  0.1000000000005272 1.1 0  0.05000000000040083 1.1 0  2.671196597248127e-13 1.1 0  -0.0499999999998666 1.1 0  0.2809960060634116 0.6547001130139337 0  0.2726060612389715 0.6365645243413948 0  0.2660196548976323 0.6160447057480279 0  0.2611251195148339 0.5939835001762481 0  0.2576043301206332 0.5710764517015383 0  0.2552379767581145 0.5476417025283035 0  0.2538902621539841 0.5239077772175897 0  0.25349003338384 0.5000710287016935 0  0.2540107668688636 0.4762097491029912 0  0.2554793688786399 0.4524776894440858 0  0.2579829298183458 0.4290715002481029 0  0.2616405953955609 0.4062004903624822 0  0.2666770950765924 0.3841998378770005 0  0.2733655280345726 0.3637100647094377 0  0.2818261629607923 0.3456828234729228 0  0.3034864893746951 0.3221406125644653 0  0.3203642128056022 0.3123206786775167 0  0.3398902635453055 0.303986229903174 0  0.3610035541702535 0.2971086541174547 0  0.383138061566657 0.2915218984064246 0  0.4059399816050195 0.2870732681793089 0  0.4291785640592349 0.2836633774192738 0  0.4527285973126942 0.2812210819952886 0  0.4764677910404516 0.2797271452502489 0  0.5003004395546431 0.2791724295035398 0  0.5241433483323076 0.2795552265457698 0  0.5479042344974102 0.2808784023969012 0  0.5715015436401237 0.2831643011883163 0  0.5947905342922837 0.2864387004703939 0  0.6176537423534492 0.2907650284545474 0  0.6398873406909112 0.2962397983862707 0  0.6611338897834811 0.3030455432244269 0  0.6808276780031595 0.311342037986428 0  0.6978249920720587 0.3211618005911869 0  0.7197905461981422 0.3450590584755358 0  0.7282366741156755 0.363121674488165 0  0.7349133572961889 0.3837701785742784 0  0.7399156296524594 0.4059256879224041 0  0.7435294044249884 0.4289111306931775 0  0.7459748305981651 0.4523979347916734 0  0.7473946746500726 0.4761780451633016 0  0.747864874379454 0.5000978758911059 0  0.7474074531206806 0.5240248581248992 0  0.7459968361812112 0.5478303760395411 0  0.7435671460230612 0.5713229766591847 0  0.7399447230551958 0.594311157376072 0  0.734951202215246 0.6164310570496285 0  0.7282770456553613 0.6370810178705915 0  0.7198186630420929 0.6551423569023381 0  0.6978220288401171 0.6790854907118079 0  0.6808090632001494 0.6889456507699158 0  0.6611454709668969 0.6972855425445916 0  0.6399065101106322 0.7041060602907261 0  0.6176773166554136 0.7096063098393518 0  0.5948041431225789 0.7139536994392681 0  0.5714863097551992 0.7172513061407552 0  0.5478745563019629 0.7195493650784366 0  0.5240942081514126 0.7208853757436108 0  0.5002333003621962 0.7212789778190672 0  0.4763816411541811 0.7207371400119498 0  0.4526303397261575 0.7192565574543033 0  0.4290590853512477 0.7168334513954118 0  0.4057836237966768 0.7134303917788501 0  0.3829443231851418 0.7090033172458402 0  0.3607370167119824 0.7034328765571921 0  0.3395144726978354 0.6965652925915559 0  0.3198681188775129 0.6882284120476789 0  0.3028457680204604 0.6783991310077463 0  0.3725856245125361 0.31829427059353 0  0.2796020076113534 0.4405841914671386 0  0.3723727061604777 0.6821665834638032 0  0.279334679927031 0.5595961627359922 0  0.7208412675903129 0.5826767051984372 0  0.6057943046206812 0.6881565352534158 0  0.6273562067090094 0.3170121690824869 0  0.7233214774948604 0.4397119042573063 0  0.7249569374974053 0.5114943157432286 0  0.5587599528416592 0.3055970770164505 0  0.4422366564509963 0.3080330099894709 0  0.4407601272996634 0.6927662808147652 0  0.5358185156961817 0.6953060273111284 0  0.2769616856062608 0.4881159058464361 0  0.284181839287398 0.3946017343506693 0  0.4886813438511304 0.3076543602659574 0  0.2892302207705511 0.6039974646462105 0  0.7114411517244252 0.3923076156418773 0  0.4884163003412523 0.6959855675884555 0  0.6502899433696024 0.6778500852687361 0  0.3297027633698366 0.3317629644274476 0  0.671713079481982 0.3324066201603733 0  0.3298702602562862 0.6709706376729221 0  0.7099697266258973 0.6290904045032734 0  0.2954264452893772 0.3529266659592901 0  0.2967925724528712 0.6463674012679382 0  0.6903378403387435 0.6651160205728662 0  0.7065514163388611 0.3518703797103548 0  0.3505849656568055 0.6769174011655718 0  0.3616308200103676 0.6572447919982939 0  0.3837598144647159 0.66083151064739 0  0.3720256720944541 0.6362970800424893 0  0.3954348192479417 0.6389064283890014 0  0.3823972505768657 0.6121467557274218 0  0.410663321109053 0.614236249920677 0  0.3946593305437257 0.5825980389173795 0  0.3548408121834483 0.6091126908173924 0  0.4292717638573147 0.5836042496486121 0  0.4092145192707779 0.5477128151120376 0  0.3688026026692725 0.5526935317991164 0  0.3860508288010678 0.5142254441103969 0  0.3478397200869742 0.5162162478946891 0  0.3611379491104951 0.4821272244138903 0  0.4013390179706636 0.4768385003451113 0  0.3799215430515024 0.4446632653032213 0  0.4164702439859511 0.4390404277913219 0  0.395874148636101 0.4086362545592539 0  0.4293419318434856 0.3963219071804985 0  0.3614297105759559 0.4107576367647584 0  0.4046689986316071 0.3758006442954056 0  0.4383497255214424 0.617202981884902 0  0.4647776440350511 0.5919702190046783 0  0.4835745484743696 0.6185352470336269 0  0.5026116775779248 0.5937766995666024 0  0.5207187575713776 0.6187699180966401 0  0.53954410003678 0.5940739243276928 0  0.5573195710704977 0.6190016474980222 0  0.5758808432515026 0.5946072848695518 0  0.5941332052030893 0.6216240699477209 0  0.6115567346897584 0.5882565477773187 0  0.595208605
[...]
<PointData  Scalars="state"> 
<DataArray  type="Float64"  Name="state"  format="ascii">0.0000000000000000e+00  0.0000000000000000e+00  0.0000000000000000e+00  0.0000000000000000e+00  0.0000000000000000e+00  0.0000000000000000e+00  0.0000000000000000e+00  0.0000000000000000e+00  -3.3123324509554276e-02  -3.3082681859778106e-02  -3.3314786537786391e-02  -3.3320012878106445e-02  -6.9670797748129856e-03  0.0000000000000000e+00  0.0000000000000000e+00  0.0000000000000000e+00  0.0000000000000000e+00  0.0000000000000000e+00  0.0000000000000000e+00  0.0000000000000000e+00  0.0000000000000000e+00  0.0000000000000000e+00  0.0000000000000000e+00  0.0000000000000000e+00  0.0000000000000000e+00  0.0000000000000000e+00  0.0000000000000000e+00  0.0000000000000000e+00  0.0000000000000000e+00  0.0000000000000000e+00  0.0000000000000000e+00  0.0000000000000000e+00  0.0000000000000000e+00  0.0000000000000000e+00  0.0000000000000000e+00  0.0000000000000000e+00  0.0000000000000000e+00  0.0000000000000000e+00  0.0000000000000000e+00  0.0000000000000000e+00  0.0000000000000000e+00  0.0000000000000000e+00  0.0000000000000000e+00  0.0000000000000000e+00  0.0000000000000000e+00  0.0000000000000000e+00  0.0000000000000000e+00  0.0000000000000000e+00  0.0000000000000000e+00  0.0000000000000000e+00  0.0000000000000000e+00  0.0000000000000000e+00  0.0000000000000000e+00  0.0000000000000000e+00  0.0000000000000000e+00  0.0000000000000000e+00  0.0000000000000000e+00  0.0000000000000000e+00  0.0000000000000000e+00  0.0000000000000000e+00  0.0000000000000000e+00  0.0000000000000000e+00  0.0000000000000000e+00  0.0000000000000000e+00  0.0000000000000000e+00  0.0000000000000000e+00  0.0000000000000000e+00  0.0000000000000000e+00  0.0000000000000000e+00  0.0000000000000000e+00  0.0000000000000000e+00  0.0000000000000000e+00  0.0000000000000000e+00  0.0000000000000000e+00  0.0000000000000000e+00  0.0000000000000000e+00  0.0000000000000000e+00  0.0000000000000000e+00  0.0000000000000000e+00  0.0000000000000000e+00  0.0000000000000000e+00  0.0000000000000000e+00  0.0000000000000000e+00  0.0000000000000000e+00  0.0000000000000000e+00  0.0000000000000000e+00  0.0000000000000000e+00  0.0000000000000000e+00  0.0000000000000000e+00  0.0000000000000000e+00  0.0000000000000000e+00  0.0000000000000000e+00  0.0000000000000000e+00  0.0000000000000000e+00  0.0000000000000000e+00  0.0000000000000000e+00  0.0000000000000000e+00  0.0000000000000000e+00  0.0000000000000000e+00  0.0000000000000000e+00  0.0000000000000000e+00  0.0000000000000000e+00  0.0000000000000000e+00  0.0000000000000000e+00  0.0000000000000000e+00  0.0000000000000000e+00  0.0000000000000000e+00  0.0000000000000000e+00  0.0000000000000000e+00  0.0000000000000000e+00  0.0000000000000000e+00  0.0000000000000000e+00  0.0000000000000000e+00  0.0000000000000000e+00  0.0000000000000000e+00  0.0000000000000000e+00  0.0000000000000000e+00  0.0000000000000000e+00  0.0000000000000000e+00  0.0000000000000000e+00  0.0000000000000000e+00  0.0000000000000000e+00  0.0000000000000000e+00  0.0000000000000000e+00  0.0000000000000000e+00  0.0000000000000000e+00  0.0000000000000000e+00  0.0000000000000000e+00  0.0000000000000000e+00  0.0000000000000000e+00  0.0000000000000000e+00  0.0000000000000000e+00  0.0000000000000000e+00  0.0000000000000000e+00  0.0000000000000000e+00  0.0000000000000000e+00  0.0000000000000000e+00  0.0000000000000000e+00  0.0000000000000000e+00  0.0000000000000000e+00  0.0000000000000000e+00  0.0000000000000000e+00  0.0000000000000000e+00  0.0000000000000000e+00  0.0000000000000000e+00  0.0000000000000000e+00  0.0000000000000000e+00  0.0000000000000000e+00  0.0000000000000000e+00  0.0000000000000000e+00  0.0000000000000000e+00  0.0000000000000000e+00  0.0000000000000000e+00  0.0000000000000000e+00  0.0000000000000000e+00  0.0000000000000000e+00  0.0000000000000000e+00  0.0000000000000000e+00  0.0000000000000000e+00  0.0000000000000000e+00  0.0000000000000000e+00  0.0000000000000000e+00  0.0000000000000000e+00  0.0000000000000000e+00  0.0000000000000000e+00  0.0000000000000000e+00  0.0000000000000000e+00  0.0000000000000000e+00  0.0000000000000000e+00  0.0000000000000000e+00  0.0000000000000000e+00  0.0000000000000000e+00  0.0000000000000000e+00  0.0000000000000000e+00  0.0000000000000000e+00  0.0000000000000000e+00  0.0000000000000000e+00  0.0000000000000000e+00  0.0000000000000000e+00  0.0000000000000000e+00  0.0000000000000000e+00  -3.2026038151368681e-02  -3.0945685280494011e-02  -2.9746930617289537e-02  -2.8616841642432903e-02  -2.7692000283165537e-02  -2.7015871962636908e-02  -2.6565203879201353e-02  -2.6523590818222698e-02  -2.6617860548035607e-02  -2.7063592176688599e-02  -2.7751691437099636e-02  -2.8640942849812476e-02  -2.9663666089098758e-02  -3.0824269381059536e-02  -3.1902919510238437e-02  -3.2425992093486032e-02  -3.1635666731041456e-02  -3.0737781224458624e-02  -2.9867120147166824e-02  -2.9091883577684580e-02  -2.8344687468159529e-02  -2.7734212914819985e-02  -2.7336496381524578e-02  -2.7034347492404277e-02  -2.6949654930320383e-02  -2.7034795314896748e-02  -2.7317407820533431e-02  -2.7789513066581152e-02  -2.8372170395575175e-02  -2.9202787516498033e-02  -3.0082714573948312e-02  -3.0947722411277873e-02  -3.1853446204642165e-02  -3.2638346005519535e-02  -3.2268918595959581e-02  -3.1100357833450262e-02  -2.9898494642812194e-02  -2.8744275136451228e-02  -2.7821744243827842e-02  -2.7133318176396110e-02  -2.6736804257653526e-02  -2.6577849197321767e-02  -2.6720012274343168e-02  -2.7195644829679209e-02  -2.7878359004582492e-02  -2.8764640635441936e-02  -2.9942640878720221e-02  -3.1151173638715172e-02  -3.2311701628826149e-02  -3.2618864518953246e-02  -3.1837485853909726e-02  -3.0992600807414509e-02  -3.0099907117965907e-02  -2.9203410735142602e-02  -2.8351242800921217e-02  -2.7769060373485383e-02  -2.7263039346376500e-02  -2.6962602786324459e-02  -2.6892371236821259e-02  -2.7006466224262990e-02  -2.7275628856590493e-02  -2.7632681715948973e-02  -2.8265262745761969e-02  -2.9036945373934732e-02  -2.9829557169327656e-02  -3.0736678486908919e-02  -3.1659317515049343e-02  -3.2450801415614315e-02  -2.4400549962466107e-02  -2.2868304434256068e-02  -2.4390701485784712e-02  -2.2857762051104562e-02  -2.4157666919118727e-02  -2.3729844273276648e-02  -2.4555132555571992e-02  -2.3169143525354752e-02  -2.2137586365351399e-02  -2.2407351260557404e-02  -2.2022852004416744e-02  -2.2045049734942347e-02  -2.1762180607451168e-02  -2.1993697687581640e-02  -2.5150005420039902e-02  -2.1004033394657808e-02  -2.4202406023157416e-02  -2.4608760157860333e-02  -2.1509498545652143e-02  -2.5727570462335793e-02  -2.6501217701265390e-02  -2.6424521775524332e-02  -2.6784168865765807e-02  -2.6539448022842561e-02  -2.8057149431344876e-02  -2.7503773483164292e-02  -2.8464824984156437e-02  -2.8327709031132825e-02  -2.5503910723798519e-02  -2.2047931989696012e-02  -2.0832903687273665e-02  -1.9142542126432266e-02  -1.7827779160917052e-02  -1.6270874194631652e-02  -1.4731711356539234e-02  -1.3280127086756478e-02  -1.8066869127394684e-02  -1.1458980198469264e-02  -1.0511875692189853e-02  -1.3512462791433581e-02  -1.1145858787120932e-02  -1.4370355167317224e-02  -1.3228484093986453e-02  -1.0284897592134180e-02  -1.2751433488417365e-02  -1.0729062487160929e-02  -1.3844086047245713e-02  -1.3021452003202559e-02  -1.6217388922152812e-02  -1.6129724650550618e-02  -1.3752492331765533e-02  -1.0900864143712309e-02  -1.2888224856584132e-02  -1.0707196121577767e-02  -1.3012687834456967e-02  -1.1219210383774410e-02  -1.3855586081486019e-02  -1.2501002043638727e-02  -1.5619976336639791e-02  -1.3990509027780755e-02  -1.1061304813641868e-02  -1.3542023167135162e-02  -1.1112022025266578e-02  -1.6517759530590995e-02  -1.6674747223325567e-02  -1.7395004306193992e-02  -1.6585801994037169e-02  -1.6470691001500538e-02  -1.7578395147137327e-02  -1.5373086402608149e-02  -1.2600417848520420e-02  -1.9800459496865451e-02  -1.8075882998411317e-02  -1.6098336152824171e-02  -1.6862781085204941e-02  -1.5623194522741791e-02  -1.2163672802603092e-02  -1.5918508893306232e-02  -1.3055390805673004e-02  -9.7883385334872341e-03  -1.1723189882561904e-02  -1.4532140853589139e-02  -1.4085268055267622e-02  -1.0489884464186890e-02  -1.3637788713280264e-02  -1.6501187976095639e-02  -1.6564010864965475e-02  -1.4656603186733327e-02  -1.9045250583133218e-02  -1.9543998659118166e-02  -2.1646417216376789e-02  -2.1721866947652459e-02  -9.0476923829803085e-03  -1.9525774565842612e-02  -1.9544802318789016e-02  -1.9783828413543449e-02  -1.7866253017541949e-02  -2.1884270431564594e-02  -2.2378211577211385e-02  -2.0708082482086110e-02  -1.6252716519360652e-02  -1.8734103565425205e-02  -2.0468362728595074e-02  -1.7926408702157302e-02  -1.5970211052184848e-02  -1.8517313940253528e-02  -1.9302484244407649e-02  -1.6192176461976907e-02  -1.8478324057364673e-02  -2.1080520575679332e-02  -2.1813244937269192e-02  -2.0496683967717273e-02  -1.9772151919121239e-02  -1.8892869022989339e-02  -2.0763084418910373e-02  -1.6766749101459408e-02  -8.4824246967821985e-03  -2.1046789985140826e-02  -8.5010749193989380e-03  -1.4193980536613721e-02  -1.7251570318780926e-02  -1.4710526356867046e-02  -1.7427662227150385e-02  -1.9532706794514826e-02  -2.0124919833131118e-02  -1.8643638175642737e-02  -1.7033575680678995e-02  -1.8699628820713486e-02  -1.8833646776522304e-02  -1.0090366732744285e-02  -2.3759468526404259e-02  -2.4111494155767361e-02  -1.7470642778749438e-02  -1.9984303347878016e-02  -1.9461361253463295e-02  -1.7632403344154172e-02  -1.8424840414960668e-02  -2.1085697656629224e-02  -1.9292922865410018e-02  -2.1219083413332777e-02  -2.1329821262319745e-02  -2.3220647538150382e-02  -2.4999878426253151e-02  -2.5366714657624991e-02  -1.9434594095860784e-02  -2.1547971315710315e-02  -2.1774287957526613e-02  -2.3146788906656845e-02  -2.5391590166623609e-02  -2.6349984968778252e-02  -2.2617980315606551e-02  -1.9135161754680215e-02  -1.6869153224592221e-02  -2.4540982730441682e-02  -2.3417238728364504e-02  -2.2156099258105695e-02  -2.5728273758680420e-02  -2.1893616029215846e-02  -2.1564192325769373e-02  -2.3628625284957849e-02  -2.6308877818682005e-02  -2.3269808221089330e-02  -2.1702679672064865e-02  -2.3807883751572875e-02  -2.0933563641898311e-02  -2.2893442128182295e-02  -2.0385305164831783e-02  -2.2315152387828486e-02  -2.4816020078974033e-02  -2.6963295750859241e-02  -2.5373704029490088e-02  -2.1532117692152599e-02  -1.7830047702431163e-02  -2.3651027795314621e-02  -2.3646876887907956e-02  -2.1938623723081207e-02  -2.8265262604581474e-02  -2.8275089606626301e-02  -2.8329881792737533e-02  -2.8443216855617116e-02  -2.2833939240527540e-02  -9.7231839564490344e-03  -8.0260124053039197e-03  -1.9383848715930026e-02  -2.3631091439829239e-02  -2.4055407758337290e-02  -2.3399500033797371e-02  -2.6698173431016090e-02  -2.2056015841774836e-02  -2.2511730510146308e-02  -1.8304102534853397e-02  -1.7577105670639651e-02  -2.1724133707669263e-02  -1.6923568197527532e-02  -8.7951566230230153e-03  -8.9060976567551294e-03  -1.2183910671676186e-02  -2.0604242945629465e-02  -2.2465289889121314e-02  -1.8650950680594629e-02  -2.0125422070609592e-02  -1.8731393720968104e-02  -2.2491142348466487e-02  -2.2424866761482504e-02  -9.2862272760671494e-03  -2.4021268079164725e-02  -1.9150387887613300e-02  -2.0361228283945619e-02  -1.6231948790097036e-02  -2.2183020045775444e-02  -1.6340963825917362e-02  -1.2109967081096927e-02  -2.2929994967451850e-02  -7.6875580630572033e-03  -1.5481323005512151e-02  -2.5996056535787047e-02  -1.6747654108880416e-02  -1.9015347860032224e-02  -1.9655702160718110e-02  -9.5544909297374074e-03  -2.2808658663192840e-02  -2.1239516273120134e-02  -1.8786267077522574e-02  -7.4324653379185049e-03  -2.0375223810897621e-02  -1.9488127939726489e-02  -8.0039247767334475e-03  -1.5855444295130701e-02  -1.8637997404002290e-02  -7.4772051290401880e-03  -1.6113263133758667e-02  -2.1014468392994683e-02  -2.1851609216329088e-02  -1.8435582619574745e-02  -1.5220373094700103e-02  -1.9175010579911715e-02  -2.3282856265369037e-02  -1.6616318337638738e-02  -2.9828667754671120e-02  -2.9969997391973216e-02  -2.9825188612911734e-02  -3.0030781256011337e-02  -2.1418636314352681e-02  -2.4047070200431748e-02  -2.0854343626573717e-02  -2.2742428123018452e-02  -1.9557205741657049e-02  -1.5262543569031312e-02  -2.3448797545145637e-02  -2.2180048165910383e-02  -1.8548865284687136e-02  -1.4291080824424917e-02  -1.5524625796018455e-02  -1.3905734042509655e-02  -2.1649585622044720e-02  -1.4241628245767730e-02  -1.9541112338838717e-02  -1.3755393174890974e-02  -7.6207684361919038e-03  -1.8810544679872712e-02  -1.6113227158647714e-02  -1.7831968705665380e-02  -1.8935848465046333e-02  -1.5119972338752351e-02  -1.4401387848222591e-02  -8.7131634920617033e-03  -2.4954815401393052e-02  -3.1662984550403020e-02  -3.2088364137116424e-02  -3.4215374574659063e-02  -3.6968084003996329e-02  -3.4211300312779379e-02  -3.7610639140324802e-02  -3.1991786347235950e-02  -3.3825147290926609e-02  -3.1947790954747105e-02  -3.3943777400327439e-02  -3.7141476068344628e-02  -3.6864965938866796e-02  -1.6948928267664518e-02  -1.5084696398553777e-02  -1.8213880333287465e-02  -1.5715100864398698e-02  -3.1441222219251462e-02  -3.5605588090730562e-02  -3.5823095792987918e-02  -3.1499964433964474e-02  -4.0656660160307619e-02  -4.5302070131874164e-02  -3.2202121399657828e-02  -3.2007525644006246e-02  -3.7503886177620523e-02  -4.6415485195207648e-02  -4.8879066927830145e-02  -4.8826432525745041e-02  -5.0496369157001252e-02  -5.0838902423892218e-02  -1.8253909364536490e-02  -1.7707697764309763e-02  -1.8242857548352118e-02  -1.7709383955228537e-02  -1.7021554922384833e-02  -1.6588850239591162e-02  -1.7613662860477705e-02  -5.0599122653179569e-02  -5.1175940789245804e-02  -4.8531041774148576e-02  -4.6805687954515438e-02  -1.8533837107111706e-02  -1.7889709852241160e-02  -1.7177152363367941e-02  -1.6746634441390566e-02  -1.8152588832495691e-02  -1.7099745855428276e-02  -1.9648065590306230e-02  -1.6309603544128533e-02  -4.6906189201984042e-02  -4.5767601930558531e-02  -1.8279520447694535e-02  -1.6424839710503698e-02  -1.8305261529929749e-02  -4.1212364363941233e-02  -4.5123214848740704e-02  -4.7587324814705186e-02  -4.9418555585523105e-02  -5.0556007718705213e-02  -5.0632353339879969e-02  -4.9745177076363466e-02  -5.0658187533494575e-02  -5.0862991142630348e-02  -4.8991966385255034e-02  -4.1181252834911412e-02  -4.5366849153369582e-02  -4.7639131028366949e-02  -4.9454859069101673e-02  -4.8044864617103548e-02  -5.0632117409010392e-02  -5.0703264005233291e-02  -5.0879644789562806e-02  -5.1014532110421562e-02  -4.9347012396825408e-02  -3.3808030655343733e-02  -4.0714057071323174e-02  -4.5368013998667675e-02  -4.6510398928453593e-02  -4.9048990374165602e-02  -4.8972984644623289e-02  -5.0669652702318484e-02  -5.1025213522168530e-02  -5.0843204776345872e-02  -5.1202427169137567e-02  -3.0784626185476692e-02  -3.1127575776558582e-02  -3.2965604606711107e-02  -3.3081859920525480e-02  -4.9740381907644862e-02  -4.9623220312595341e-02  -4.9857317289325666e-02  -4.9229908059377540e-02  -4.9357511422467040e-02  -4.9994401678029488e-02  -1.7773896249563551e-02  -4.9149484648900406e-02  -5.1085993725098228e-02  -4.8952512118355350e-02  -4.8889628415133987e-02  -5.0560988390931802e-02  -4.9458052032401660e-02  -3.3834291063176730e-02  -4.6049580084425584e-02  -4.6019658849623502e-02  -1.4644028951288506e-02  -1.3655678327635531e-02  -1.4659331896219121e-02  -4.4952621609430282e-02  -4.5825253717686955e-02  -4.3066385982315110e-02  -4.2327274125282879e-02  -4.7918248959384575e-02  -4.9779128423248040e-02  -4.7508515846858626e-02  -4.9294260094134200e-02  -4.6319819938662139e-02  -4.9250388353836209e-02  -4.6012296531589975e-02  -4.8546875355115197e-02  -4.5305491985397843e-02  -4.7182382654293309e-02  -4.6334091974764409e-02  -4.9146770597809919e-02  -4.5916177232148220e-02  -4.8236508469096960e-02  -4.5163839657674835e-02  -4.7209434317969520e-02  -4.4342151429202226e-02  -4.6358162355479716e-02  -4.3712927017238022e-02  -4.5790078187575550e-02  -4.3247333750439237e-02  -4.5530438009620845e-02  -4.2990952384923189e-02  -4.5625294989713128e-02  -4.4319457697510806e-02  -4.6238871221523786e-02  -4.3594109302591687e-02  -4.5629079635359143e-02  -4.3086503116345459e-02  -4.5356218438774978e-02  -4.2785555480521591e-02  -4.5469123848932674e-02  -4.5238151551551538e-02  -4.4848515933124951e-02  -4.8519938196279484e-02  -4.8383665782023272e-02  -4.4943599476872841e-02  -4.4289003744270694e-02  -4.3280690845587021e-02  -4.6103500146139724e-02  -4.3671277846022385e-02  -4.6786642610762312e-02  -4.4057786414188331e-02  -4.3058153183089413e-02  -4.5910814143661265e-02  -4.3367379505343036e-02  -4.6548949002901775e-02  -4.3722688547540578e-02  -4.8991541843499374e-02  -4.5901639060258008e-02  -4.4907510439351914e-02  -4.6157241618076404e-02  -4.7131149611295220e-02  -4.6262844381954341e-02  -4.7276253752337592e-02  -4.4811587637900045e-02  -3.9801569740273927e-02  -4.5043001340460707e-02  -3.9833341811420807e-02  -4.5218852343505013e-02  -3.7663841438478333e-02  -4.5358250267761094e-02  -4.5180504513860013e-02  -4.1173847899809060e-02  -3.9362327635425264e-02  -3.7491367624847768e-02  -4.4988465086329303e-02  -4.0246812743372239e-02  -4.7023326591443496e-02  -3.8764383375767167e-02  -4.7127130212439534e-02  -3.6763386467141765e-02  -3.6979876023836004e-02  -3.6012536787029245e-02  -4.1900541475435163e-02  -3.8031193437546719e-02  -4.2185381675263915e-02  -3.0450150989066217e-02  -5.0144938517660873e-02  -1.1656416969739387e-02  -4.4597203821874591e-02  -5.0134694688601628e-02  -3.8953519522601648e-02  -3.5838495123997331e-02  -4.0447343231049926e-02  -3.8931684345267198e-02  -4.5336339586745468e-02  -4.5343167046286430e-02  -4.3810593606450267e-02  -4.6938920832174012e-02  -4.5132773898464457e-02  -4.5981577156736106e-02  -4.4503560363699381e-02  -4.2707913195806572e-02  -4.1683686965252244e-02  -4.4683968244750231e-02  -4.3000927638080243e-02  -4.0714860280703431e-02  -4.1514340338633313e-02  -3.9846144888721284e-02  -4.0661223529041862e-02  -3.9499486915749921e-02  -4.0199616634104610e-02  -3.9789620923497318e-02  -4.0500588612570519e-02  -3.7337648463267023e-02  -4.1804334581906528e-02  -4.2108658039785980e-02  -4.1088094073553981e-02  -3.0795087875605073e-02  -3.9979727485318674e-02  -3.7577353233798912e-02  -3.8378740510707242e-02  -3.5400731169223973e-02  -1.0632227409471234e-02  -1.2389760281932135e-02  -1.1729493067183214e-02  -4.4150656334506301e-02  -3.8893617999856488e-02  -4.7579390063392513e-02  -4.2529843845940149e-02  -4.5425058525108752e-02  -3.2082572212722545e-02  -3.2910243329175533e-02  -3.3677958152792641e-02  -3.8650478326793768e-02  -4.1978778901478248e-02  -4.4912670120994355e-02  -4.3237922093694238e-02  -3.8631738988492599e-02  -4.1113714061935674e-02  -4.1748366248530344e-02  -4.1063855954059987e-02  -3.9222386020706670e-02  -4.0370831223636640e-02  -3.6952057150552532e-02  -3.9505832200138008e-02  -3.9955796026449365e-02  -4.0378427958884307e-02  -3.8501855205029384e-02  -4.0854883601614669e-02  -3.7336332137743983e-02  -4.0933050223606715e-02  -4.1459514687677758e-02  -4.2782829282721771e-02  -4.0822792276049596e-02  -4.4188558900062271e-02  -4.0181222952163899e-02  -4.5136415640312448e-02  -3.8691360053190745e-02  -4.3763696127479795e-02  -4.3589435968881367e-02  -4.5200244872531055e-02  -4.3013930363014763e-02  -4.9469599461609517e-02  -4.7771072257126103e-02  -3.6038109372469512e-02  -3.3487969419367998e-02  -4.3579348587268224e-02  -4.3007340901494336e-02  -4.7518315278784105e-02  -3.9148055885174428e-02  -4.8322775400503552e-02  -3.5254114180459338e-02  -3.9523224360999483e-02  -4.0454911181984889e-02  -4.5642664713860359e-02  -3.4427314516840106e-02  -4.1093917147893261e-02  -3.8483693008854021e-02  -3.7782678260433550e-02  -3.7651424863710044e-02  -3.9472955753656870e-02  -4.1235323336747322e-02  -3.6799210465731272e-02  -3.9737230814471468e-02  -3.87873537905