<?xml version="1.0"?>
<VTKFile type="UnstructuredGrid"  version="0.1"  >
<UnstructuredGrid>
<Piece  NumberOfPoints="1297" NumberOfCells="2496">
<Points>
<DataArray  type="Float64"  NumberOfComponents="3"  format="ascii">0 0 0  0 1 0  1 1 0  1 0 0  1.1 -0.1 0  -0.1 -0.1 0  1.1 1.1 0  -0.1 1.1 0  0.3052991571744554 0.6594836472009615 0  0.3059676026025751 0.3410266835301179 0  0.6957934005215743 0.3400084696667407 0  0.6958275249488982 0.6602940166853628 0  0.5005430459365845 0.5001803024056307 0  0 0.9499999999997918 0  0 0.8999999999995836 0  0 0.8499999999996529 0  0 0.7999999999999998 0  0 0.7500000000003466 0  0 0.7000000000006934 0  0 0.6500000000010401 0  0 0.6000000000013869 0  0 0.5500000000017335 0  0 0.5000000000020587 0  0 0.4500000000018723 0  0 0.4000000000016644 0  0 0.3500000000014564 0  0 0.3000000000012483 0  0 0.2500000000010403 0  0 0.2000000000008322 0  0 0.1500000000006241 0  0 0.100000000000416 0  0 0.05000000000020799 0  0.04999999999989965 0 0  0.09999999999981467 0 0  0.1499999999997036 0 0  0.1999999999995579 0 0  0.2499999999994121 0 0  0.2999999999992664 0 0  0.3499999999991206 0 0  0.3999999999989749 0 0  0.4499999999988292 0 0  0.4999999999986943 0 0  0.5499999999988151 0 0  0.5999999999989468 0 0  0.6499999999990784 0 0  0.69999999999921 0 0  0.7499999999993417 0 0  0.7999999999994734 0 0  0.8499999999996051 0 0  0.8999999999997368 0 0  0.9499999999998684 0 0  1 0.04999999999989965 0  1 0.09999999999981467 0  1 0.1499999999997036 0  1 0.1999999999995579 0  1 0.2499999999994121 0  1 0.2999999999992664 0  1 0.3499999999991206 0  1 0.3999999999989749 0  1 0.4499999999988292 0  1 0.4999999999986943 0  1 0.5499999999988151 0  1 0.5999999999989468 0  1 0.6499999999990784 0  1 0.69999999999921 0  1 0.7499999999993417 0  1 0.7999999999994734 0  1 0.8499999999996051 0  1 0.8999999999997368 0  1 0.9499999999998684 0  0.9499999999997918 1 0  0.8999999999995836 1 0  0.8499999999996529 1 0  0.7999999999999998 1 0  0.7500000000003466 1 0  0.7000000000006934 1 0  0.6500000000010401 1 0  0.6000000000013869 1 0  0.5500000000017335 1 0  0.5000000000020587 1 0  0.4500000000018723 1 0  0.4000000000016644 1 0  0.3500000000014564 1 0  0.3000000000012483 1 0  0.2500000000010403 1 0  0.2000000000008322 1 0  0.1500000000006241 1 0  0.100000000000416 1 0  0.05000000000020799 1 0  -0.1 1.05000000000004 0  -0.1 1.000000000000079 0  -0.1 0.9500000000001624 0  -0.1 0.9000000000003032 0  -0.1 0.850000000000444 0  -0.1 0.8000000000005848 0  -0.1 0.7500000000007256 0  -0.1 0.7000000000008665 0  -0.1 0.6500000000010508 0  -0.1 0.6000000000012352 0  -0.1 0.5500000000014196 0  -0.1 0.500000000001539 0  -0.1 0.4500000000014195 0  -0.1 0.4000000000013 0  -0.1 0.3500000000011588 0  -0.1 0.3000000000010178 0  -0.1 0.2500000000008986 0  -0.1 0.2000000000007579 0  -0.1 0.1500000000006174 0  -0.1 0.1000000000005272 0  -0.1 0.05000000000040083 0  -0.1 2.671196597248127e-13 0  -0.1 -0.0499999999998666 0  -0.0500000000000906 -0.1 0  -1.730560139634463e-13 -0.1 0  0.04999999999975802 -0.1 0  0.09999999999961506 -0.1 0  0.1499999999994613 -0.1 0  0.199999999999302 -0.1 0  0.2499999999991446 -0.1 0  0.2999999999990088 -0.1 0  0.3499999999988296 -0.1 0  0.3999999999986936 -0.1 0  0.4499999999985143 -0.1 0  0.4999999999984002 -0.1 0  0.5499999999985247 -0.1 0  0.5999999999986493 -0.1 0  0.6499999999987955 -0.1 0  0.6999999999989417 -0.1 0  0.7499999999990659 -0.1 0  0.7999999999992116 -0.1 0  0.8499999999993573 -0.1 0  0.8999999999994526 -0.1 0  0.949999999999584 -0.1 0  0.9999999999997226 -0.1 0  1.049999999999861 -0.1 0  1.1 -0.0500000000000906 0  1.1 -1.730560139634463e-13 0  1.1 0.04999999999975802 0  1.1 0.09999999999961506 0  1.1 0.1499999999994613 0  1.1 0.199999999999302 0  1.1 0.2499999999991446 0  1.1 0.2999999999990088 0  1.1 0.3499999999988296 0  1.1 0.3999999999986936 0  1.1 0.4499999999985143 0  1.1 0.4999999999984002 0  1.1 0.5499999999985247 0  1.1 0.5999999999986493 0  1.1 0.6499999999987955 0  1.1 0.6999999999989417 0  1.1 0.7499999999990659 0  1.1 0.7999999999992116 0  1.1 0.8499999999993573 0  1.1 0.8999999999994526 0  1.1 0.949999999999584 0  1.1 0.9999999999997226 0  1.1 1.049999999999861 0  1.05000000000004 1.1 0  1.000000000000079 1.1 0  0.9500000000001624 1.1 0  0.9000000000003032 1.1 0  0.850000000000444 1.1 0  0.8000000000005848 1.1 0  0.7500000000007256 1.1 0  0.7000000000008665 1.1 0  0.6500000000010508 1.1 0  0.6000000000012352 1.1 0  0.5500000000014196 1.1 0  0.500000000001539 1.1 0  0.4500000000014195 1.1 0  0.4000000000013 1.1 0  0.3500000000011588 1.1 0  0.3000000000010178 1.1 0  0.2500000000008986 1.1 0  0.2000000000007579 1.1 0  0.1500000000006174 1.1 0  0.1000000000005272 1.1 0  0.05000000000040083 1.1 0  2.671196597248127e-13 1.1 0  -0.0499999999998666 1.1 0  0.2956696492988288 0.6470942684827956 0  0.2852519022391293 0.6307608108504051 0  0.2757888806247053 0.6120880106560675 0  0.2677623427819551 0.5915073249108376 0  0.2614588495889936 0.5696566255203986 0  0.2569519326801649 0.5468929001801741 0  0.2542650554695695 0.5235687831200317 0  0.253419841356008 0.5000424845218966 0  0.2543941321498888 0.4764595847988284 0  0.257201843145321 0.4531420226084125 0  0.2618430800056215 0.4304298970935068 0  0.2682741932883646 0.4086469488057864 0  0.2764124891457665 0.388167308876286 0  0.2859684686137187 0.3695423053925372 0  0.2964160923546623 0.3532878288995185 0  0.3165988559602731 0.3296363183359188 0  0.330694587503584 0.3170650924020094 0  0.3473266307680066 0.3049056786582455 0  0.365953174741332 0.293837043908709 0  0.3861769741053677 0.2841990970900938 0  0.4076351295394388 0.2761783117748057 0  0.4300159745821876 0.2698664414037764 0  0.4530610018286352 0.2652911104100992 0  0.476554674253883 0.2624871625386557 0  0.5002563531540366 0.2614729128681967 0  0.5239873945176552 0.2622516763487179 0  0.5475341362254346 0.2648213917082864 0  0.5706752728284656 0.2691754563138878 0  0.5931575073705524 0.2753022625941431 0  0.6147420224849705 0.2831607229196586 0  0.6351318398261024 0.2926743601551882 0  0.6539481032384303 0.303692043055619 0  0.6707804425826486 0.3158750284322558 0  0.6850025585891377 0.3284843347077397 0  0.7055437073388744 0.3525190891432108 0  0.7159552395455266 0.3688049864566386 0  0.7255226978573523 0.3876262613440574 0  0.7336283632572512 0.4083296985536093 0  0.7399889521000004 0.4302790712471631 0  0.744537765279018 0.4530875812722978 0  0.7472696225250426 0.476447437519701 0  0.7481866656770477 0.5000827963229836 0  0.7472860711360646 0.5237304270457559 0  0.7445642908016482 0.5471537995788559 0  0.7400308323354622 0.5699667786100985 0  0.7336655006747819 0.5919367243629782 0  0.725592734396924 0.6125998411872138 0  0.7160302295205239 0.6314398561914931 0  0.705612654294246 0.6477426557483538 0  0.6850240638153912 0.6718351696645974 0  0.6707620516556733 0.6844844170229155 0  0.6539568223559035 0.6966748726253492 0  0.6351625135298388 0.7076972449013986 0  0.6147973541247088 0.7172237159470699 0  0.5932189951246595 0.7251014468327202 0  0.5707126316108994 0.731265372496259 0  0.547566286833591 0.7356487797523203 0  0.524010387619305 0.7382449752862563 0  0.5002610117108865 0.7390515755361823 0  0.4765350590286163 0.7380694535955405 0  0.4530366093258733 0.7353023334320457 0  0.4299552762297771 0.7307670853767698 0  0.4075149558884754 0.7244857508761428 0  0.3860080450350583 0.7165122063047611 0  0.365685635194565 0.7068847784270064 0  0.3469318255208903 0.6957900938540884 0  0.3301905388430024 0.6835877168066478 0  0.3159967719688172 0.6709489754366749 0  0.3774214959429008 0.3148204842638229 0  0.283494921509535 0.4416762720907699 0  0.3772351624005206 0.6857716436321859 0  0.283205671076704 0.5584666582498576 0  0.7154410080093085 0.5808777503215994 0  0.6027163154278291 0.6950242689642532 0  0.6227737108229584 0.3131540583063121 0  0.7197510052201623 0.4408135112270035 0  0.7234919108267479 0.5113369294142576 0  0.5576099898305346 0.293896265052574 0  0.4434569060297426 0.2967166093817542 0  0.4420655286416141 0.7041246526415181 0  0.5352489768445508 0.7082371700191006 0  0.2787209149696588 0.4882619713660398 0  0.292294825296355 0.3976284055362432 0  0.4888843137345761 0.2945757349201303 0  0.2970798643152138 0.6011813086470185 0  0.7035378898652992 0.3952554913695343 0  0.4886613243603457 0.709609322463276 0  0.6436939908249996 0.6783231958663778 0  0.3388780618280065 0.3346876521516192 0  0.6627655372934211 0.3351956917483369 0  0.3389604532237495 0.6682333097240405 0  0.6998720872144365 0.6248304878351649 0  0.3075746964794177 0.3587221624453529 0  0.3087013758500661 0.640817828970485 0  0.679161324226833 0.6599206750024705 0  0.6945997100532953 0.3576273979052665 0  0.3574186414837169 0.6772571568340201 0  0.3676102102485455 0.6584341678303686 0  0.3882205036791982 0.6644329104865156 0  0.377195964527634 0.637871499321931 0  0.3993336095953678 0.6423489595554752 0  0.3867006453108035 0.6138466088277513 0  0.413795115794321 0.6174419544419402 0  0.3980923232576892 0.5841133202852253 0  0.3603796179787619 0.6091688382639568 0  0.4315760708457395 0.5861985601097088 0  0.4118739932590173 0.548762809753234 0  0.372471291508791 0.5530581053924276 0  0.3890005053360813 0.5144225549175691 0  0.3512572837898361 0.5162107571069919 0  0.3644463160679003 0.482054488196704 0  0.4040232185323259 0.4764229023989027 0  0.3833719424726975 0.4440527886587721 0  0.4190114597579345 0.4375495423709584 0  0.3993521224448113 0.4068832127541162 0  0.4317068612248245 0.3929046855205206 0  0.3661039165615637 0.4104407046705793 0  0.40806459186551 0.3724990992987874 0  0.4404467127859907 0.6216850557047408 0  0.4659723194449155 0.5956723317359902 0  0.4841817147970841 0.6241045700071796 0  0.5026400809824264 0.597843880791428 0  0.5201853681190964 0.6243430507627965 0  0.5384356726892063 0.5978536763414275 0  0.5555995789077657 0.6237868119229267 0  0.5735993681929353 0.5975726358690239 0  0.5910209115492211 0.6249997959399589 0  0.6081195717219846 0.5897847459626397 0  0.592633118607156 0
[...]
<PointData  Scalars="state"> 
<DataArray  type="Float64"  Name="state"  format="ascii">0.0000000000000000e+00  0.0000000000000000e+00  0.0000000000000000e+00  0.0000000000000000e+00  0.0000000000000000e+00  0.0000000000000000e+00  0.0000000000000000e+00  0.0000000000000000e+00  -3.1148632600091583e-02  -3.1112855558535879e-02  -3.1288345264190803e-02  -3.1310217913370623e-02  -6.9005567190738321e-03  0.0000000000000000e+00  0.0000000000000000e+00  0.0000000000000000e+00  0.0000000000000000e+00  0.0000000000000000e+00  0.0000000000000000e+00  0.0000000000000000e+00  0.0000000000000000e+00  0.0000000000000000e+00  0.0000000000000000e+00  0.0000000000000000e+00  0.0000000000000000e+00  0.0000000000000000e+00  0.0000000000000000e+00  0.0000000000000000e+00  0.0000000000000000e+00  0.0000000000000000e+00  0.0000000000000000e+00  0.0000000000000000e+00  0.0000000000000000e+00  0.0000000000000000e+00  0.0000000000000000e+00  0.0000000000000000e+00  0.0000000000000000e+00  0.0000000000000000e+00  0.0000000000000000e+00  0.0000000000000000e+00  0.0000000000000000e+00  0.0000000000000000e+00  0.0000000000000000e+00  0.0000000000000000e+00  0.0000000000000000e+00  0.0000000000000000e+00  0.0000000000000000e+00  0.0000000000000000e+00  0.0000000000000000e+00  0.0000000000000000e+00  0.0000000000000000e+00  0.0000000000000000e+00  0.0000000000000000e+00  0.0000000000000000e+00  0.0000000000000000e+00  0.0000000000000000e+00  0.0000000000000000e+00  0.0000000000000000e+00  0.0000000000000000e+00  0.0000000000000000e+00  0.0000000000000000e+00  0.0000000000000000e+00  0.0000000000000000e+00  0.0000000000000000e+00  0.0000000000000000e+00  0.0000000000000000e+00  0.0000000000000000e+00  0.0000000000000000e+00  0.0000000000000000e+00  0.0000000000000000e+00  0.0000000000000000e+00  0.0000000000000000e+00  0.0000000000000000e+00  0.0000000000000000e+00  0.0000000000000000e+00  0.0000000000000000e+00  0.0000000000000000e+00  0.0000000000000000e+00  0.0000000000000000e+00  0.0000000000000000e+00  0.0000000000000000e+00  0.0000000000000000e+00  0.0000000000000000e+00  0.0000000000000000e+00  0.0000000000000000e+00  0.0000000000000000e+00  0.0000000000000000e+00  0.0000000000000000e+00  0.0000000000000000e+00  0.0000000000000000e+00  0.0000000000000000e+00  0.0000000000000000e+00  0.0000000000000000e+00  0.0000000000000000e+00  0.0000000000000000e+00  0.0000000000000000e+00  0.0000000000000000e+00  0.0000000000000000e+00  0.0000000000000000e+00  0.0000000000000000e+00  0.0000000000000000e+00  0.0000000000000000e+00  0.0000000000000000e+00  0.0000000000000000e+00  0.0000000000000000e+00  0.0000000000000000e+00  0.0000000000000000e+00  0.0000000000000000e+00  0.0000000000000000e+00  0.0000000000000000e+00  0.0000000000000000e+00  0.0000000000000000e+00  0.0000000000000000e+00  0.0000000000000000e+00  0.0000000000000000e+00  0.0000000000000000e+00  0.0000000000000000e+00  0.0000000000000000e+00  0.0000000000000000e+00  0.0000000000000000e+00  0.0000000000000000e+00  0.0000000000000000e+00  0.0000000000000000e+00  0.0000000000000000e+00  0.0000000000000000e+00  0.0000000000000000e+00  0.0000000000000000e+00  0.0000000000000000e+00  0.0000000000000000e+00  0.0000000000000000e+00  0.0000000000000000e+00  0.0000000000000000e+00  0.0000000000000000e+00  0.0000000000000000e+00  0.0000000000000000e+00  0.0000000000000000e+00  0.0000000000000000e+00  0.0000000000000000e+00  0.0000000000000000e+00  0.0000000000000000e+00  0.0000000000000000e+00  0.0000000000000000e+00  0.0000000000000000e+00  0.0000000000000000e+00  0.0000000000000000e+00  0.0000000000000000e+00  0.0000000000000000e+00  0.0000000000000000e+00  0.0000000000000000e+00  0.0000000000000000e+00  0.0000000000000000e+00  0.0000000000000000e+00  0.0000000000000000e+00  0.0000000000000000e+00  0.0000000000000000e+00  0.0000000000000000e+00  0.0000000000000000e+00  0.0000000000000000e+00  0.0000000000000000e+00  0.0000000000000000e+00  0.0000000000000000e+00  0.0000000000000000e+00  0.0000000000000000e+00  0.0000000000000000e+00  0.0000000000000000e+00  0.0000000000000000e+00  0.0000000000000000e+00  0.0000000000000000e+00  0.0000000000000000e+00  0.0000000000000000e+00  0.0000000000000000e+00  0.0000000000000000e+00  0.0000000000000000e+00  0.0000000000000000e+00  0.0000000000000000e+00  0.0000000000000000e+00  0.0000000000000000e+00  0.0000000000000000e+00  0.0000000000000000e+00  0.0000000000000000e+00  0.0000000000000000e+00  -3.0348124215286845e-02  -2.9878626867422882e-02  -2.9315696695006607e-02  -2.8728244253763337e-02  -2.8227831519713632e-02  -2.7841564478085723e-02  -2.7553267185811647e-02  -2.7573601425113316e-02  -2.7612356788460232e-02  -2.7892139653296618e-02  -2.8289857719283516e-02  -2.8755660264826132e-02  -2.9219868061656388e-02  -2.9742689276493373e-02  -3.0225338237723439e-02  -3.0640981044079398e-02  -3.0312672889189991e-02  -2.9977231547985067e-02  -2.9624783355275863e-02  -2.9276821005181437e-02  -2.8847207292318280e-02  -2.8447190941327298e-02  -2.8188647051088461e-02  -2.7962917632405774e-02  -2.7902876207932949e-02  -2.7968468587513007e-02  -2.8174193347283549e-02  -2.8495585405644629e-02  -2.8867901370638101e-02  -2.9369485980682765e-02  -2.9819220132151329e-02  -3.0162619890369346e-02  -3.0497355527259053e-02  -3.0808085930707788e-02  -3.0566334202943388e-02  -2.9984466555401452e-02  -2.9418910402475355e-02  -2.8807722136308712e-02  -2.8301768797920873e-02  -2.7904463506625236e-02  -2.7675110214488780e-02  -2.7570434023997847e-02  -2.7661766585289793e-02  -2.7969289528274224e-02  -2.8363289347811918e-02  -2.8828577706209155e-02  -2.9465668772655152e-02  -3.0042737415317086e-02  -3.0621465166054015e-02  -3.0794933562497989e-02  -3.0472383995150131e-02  -3.0185084216317291e-02  -2.9817037375840336e-02  -2.9356648857565722e-02  -2.8832379970950766e-02  -2.8460964604030477e-02  -2.8099083144435870e-02  -2.7873550361232794e-02  -2.7831477169626515e-02  -2.7925322005362754e-02  -2.8118451899690398e-02  -2.8340273854204456e-02  -2.8755819890067237e-02  -2.9209408600288284e-02  -2.9588877940727985e-02  -2.9986288273193867e-02  -3.0339881822562798e-02  -3.0659290067800021e-02  -2.4205630832350306e-02  -2.3235316020499525e-02  -2.4188776310739814e-02  -2.3230368355585836e-02  -2.4236695915459270e-02  -2.3762179997814617e-02  -2.4344969598230397e-02  -2.3499459972618215e-02  -2.2730913017970370e-02  -2.2811284809114780e-02  -2.2408405644138388e-02  -2.2411289185354722e-02  -2.2213101716428471e-02  -2.2639001961051685e-02  -2.4895538178119871e-02  -2.1469058477684357e-02  -2.3967700992090727e-02  -2.4264324217897967e-02  -2.2004521637540981e-02  -2.5174593973095453e-02  -2.5657429900553776e-02  -2.5556414118883611e-02  -2.5944083735256772e-02  -2.5794892707361343e-02  -2.6941560877457707e-02  -2.6442824183704146e-02  -2.7240228676917354e-02  -2.7153340460834442e-02  -2.4994667579257838e-02  -2.1739437489374062e-02  -2.0702210450236767e-02  -1.8951656853187573e-02  -1.7752314636332197e-02  -1.6185283356469737e-02  -1.4696395875581341e-02  -1.3265430391554461e-02  -1.7903863735241637e-02  -1.1432289251059919e-02  -1.0518347411916483e-02  -1.3576144908380744e-02  -1.1218148079157449e-02  -1.4551001362857854e-02  -1.3369624959180620e-02  -1.0322984501941489e-02  -1.2797016581780469e-02  -1.0722825677657255e-02  -1.3821130294282356e-02  -1.3001610976147679e-02  -1.6170029474630671e-02  -1.6089884903579061e-02  -1.3743399191582812e-02  -1.0859583115800786e-02  -1.2892433236547146e-02  -1.0655812663194535e-02  -1.3011075781552979e-02  -1.1167894548649415e-02  -1.3838046844974011e-02  -1.2449707664810373e-02  -1.5549471094734781e-02  -1.3940770871955947e-02  -1.1041627123655827e-02  -1.3567304604733189e-02  -1.1141963000460890e-02  -1.6446646023117770e-02  -1.6749012054326880e-02  -1.7403702449460080e-02  -1.6723997541893611e-02  -1.6634136542258579e-02  -1.7884274633757725e-02  -1.5423133996722429e-02  -1.2593924013488012e-02  -1.9821373491268536e-02  -1.8155550368219333e-02  -1.6251186694389547e-02  -1.7003404241645984e-02  -1.5744800408858957e-02  -1.2157961794521900e-02  -1.6059696933203367e-02  -1.3058569575672040e-02  -9.7356715300040263e-03  -1.1674880471253712e-02  -1.4513594112285040e-02  -1.4030659985745547e-02  -1.0461748666327660e-02  -1.3611930242331767e-02  -1.6384903266136355e-02  -1.6481719633217526e-02  -1.4683565750262841e-02  -1.8809160008295970e-02  -1.9377205443067987e-02  -2.1261769661391386e-02  -2.1316770428589864e-02  -9.0242592379995816e-03  -1.9463673009981735e-02  -1.9308241111960018e-02  -1.9924672360817210e-02  -1.8095335170254957e-02  -2.1599047858423405e-02  -2.1918404398428040e-02  -2.0373877339693643e-02  -1.6381532443665095e-02  -1.9018209386599944e-02  -2.0782800013795514e-02  -1.8128791152873153e-02  -1.6092795791135740e-02  -1.8502632860025573e-02  -1.9116526462058917e-02  -1.6428940352048105e-02  -1.8732066391066844e-02  -2.0906334838943292e-02  -2.1434292372754262e-02  -2.0197387089798336e-02  -2.0063978342954300e-02  -1.8985973727735826e-02  -2.1251646952488403e-02  -1.6789288630557491e-02  -8.4279996873871648e-03  -2.1092674738295708e-02  -8.4782223095335504e-03  -1.4320769912609971e-02  -1.7526295460494209e-02  -1.4861711873940550e-02  -1.7676094580475740e-02  -1.9940090392292772e-02  -2.0487048043814574e-02  -1.8792441565814843e-02  -1.6929659984628861e-02  -1.8614833532931432e-02  -1.9224243725549945e-02  -1.0096786436901747e-02  -2.3158807367996137e-02  -2.3542311604675872e-02  -1.7305662047603150e-02  -1.9757449697846641e-02  -1.9237613150823570e-02  -1.7540995331183473e-02  -1.8478093188774854e-02  -2.0935223763271098e-02  -1.9187972080547715e-02  -2.0883628497444365e-02  -2.1296110210335409e-02  -2.2708832287193063e-02  -2.4277614988395917e-02  -2.4864160110133066e-02  -1.9892016946669127e-02  -2.2022908429942811e-02  -2.2234566671611673e-02  -2.2632670705964940e-02  -2.4609714974050182e-02  -2.5660976548581297e-02  -2.2851612151551279e-02  -1.9268171883222367e-02  -1.6878871896643860e-02  -2.4233916203838388e-02  -2.3463936044877790e-02  -2.2358695937934547e-02  -2.5217055703196250e-02  -2.2109471679026396e-02  -2.2015727074895804e-02  -2.3701080421782410e-02  -2.5644271911873590e-02  -2.2849241876429685e-02  -2.2207320362379220e-02  -2.3856328228685508e-02  -2.1016893137787599e-02  -2.3122309817407427e-02  -2.0398965912319246e-02  -2.2689161601015844e-02  -2.4587577427168689e-02  -2.6065844300177242e-02  -2.4582840187856090e-02  -2.1392494564227767e-02  -1.8082499913443951e-02  -2.3090573213356006e-02  -2.3685945158433253e-02  -2.1645475828570605e-02  -2.7078066111905219e-02  -2.7088298619566239e-02  -2.7169296178838953e-02  -2.7201546280392262e-02  -2.3146646338147038e-02  -9.6872269306559500e-03  -7.9572653105280909e-03  -1.9748830403731960e-02  -2.3766342137863758e-02  -2.4164619118317132e-02  -2.3006796140814408e-02  -2.5930178686026387e-02  -2.2541768421262418e-02  -2.2159487437635579e-02  -1.8561395311432041e-02  -1.7580212295798533e-02  -2.2246107376977544e-02  -1.7231978226229908e-02  -8.7924592421229318e-03  -8.8694117118979492e-03  -1.2208199587034873e-02  -2.0295348372900566e-02  -2.2120976459347949e-02  -1.8928644973903713e-02  -2.0155417032987271e-02  -1.8949123519961884e-02  -2.3192202903120036e-02  -2.3034166599440249e-02  -9.2347405823976145e-03  -2.3490233234744202e-02  -1.9382143684496519e-02  -2.0356539436738191e-02  -1.6209693714962434e-02  -2.2078620904545009e-02  -1.6420624517260708e-02  -1.2170549737065082e-02  -2.3465998046518288e-02  -7.6303109277509476e-03  -1.5451884588113330e-02  -2.5122874366093229e-02  -1.6825775473752261e-02  -1.9254135039530839e-02  -1.9802070729179107e-02  -9.5062461061943028e-03  -2.3366249135231609e-02  -2.1114201530845336e-02  -1.9091629228645102e-02  -7.3756115909769547e-03  -2.0599679010677486e-02  -1.9298056173060255e-02  -7.9401472067282923e-03  -1.5973943471271315e-02  -1.8926194917726426e-02  -7.4308391153599732e-03  -1.6254877928261378e-02  -2.1181264445701224e-02  -2.1700295277412750e-02  -1.8326519529166637e-02  -1.5318623720271480e-02  -1.9362545072758943e-02  -2.3856940257749332e-02  -1.6685687923983911e-02  -2.8359963021194434e-02  -2.8455213090346831e-02  -2.8344401377203291e-02  -2.8524215113748835e-02  -2.1196774148968665e-02  -2.3469907373400840e-02  -2.1126886774057840e-02  -2.2608504001410200e-02  -1.9739120171913083e-02  -1.5240513525335699e-02  -2.2907498865732217e-02  -2.1853826933142736e-02  -1.8369645102008884e-02  -1.4315376099870322e-02  -1.5621653524143521e-02  -1.3949001946840896e-02  -2.1729722804145604e-02  -1.4275442951347719e-02  -1.9508402727090979e-02  -1.3831658576844173e-02  -7.5548866237966058e-03  -1.8940199921936400e-02  -1.6127971222830859e-02  -1.7825048567052103e-02  -1.9256514202701028e-02  -1.5338978613858238e-02  -1.4421751198698514e-02  -8.6843015126347317e-03  -2.4270316078491738e-02  -3.1735843890500548e-02  -3.2114335828670307e-02  -3.4059502769495278e-02  -3.6560090013691454e-02  -3.4038496200397783e-02  -3.7163303572741106e-02  -3.2055483071550241e-02  -3.3728067805843323e-02  -3.2010696247657892e-02  -3.3802815968764346e-02  -3.6687670004860340e-02  -3.6461277388403025e-02  -1.6962968260448699e-02  -1.5096062363687544e-02  -1.8236178455475181e-02  -1.5727227700263344e-02  -3.2269763625924083e-02  -3.5844955148646926e-02  -3.5996615299212574e-02  -3.2279865212127418e-02  -4.0788806511715542e-02  -4.6026235603165155e-02  -3.2873894478367416e-02  -3.2757649615139287e-02  -3.7661978428153733e-02  -4.7399772969877046e-02  -4.9848775913135045e-02  -4.9591209021089683e-02  -5.1353665919442251e-02  -5.1500342708489272e-02  -1.7531999149529080e-02  -1.7023000994384453e-02  -1.7536751833507350e-02  -1.7017957099044190e-02  -1.7384406786832597e-02  -1.6924370511369250e-02  -1.7976122567884476e-02  -5.1285994045419676e-02  -5.1617155830075763e-02  -4.9636281569230445e-02  -4.7960392241509053e-02  -1.9073289845586570e-02  -1.8406117330646357e-02  -1.7646615387092567e-02  -1.7202587874202806e-02  -1.8657197759011913e-02  -1.7542437322310714e-02  -2.0233380959097165e-02  -1.5990638608599957e-02  -4.8054210693634469e-02  -4.6968975642198721e-02  -1.7940732805209303e-02  -1.6111119547306041e-02  -1.7968468222041400e-02  -4.1120663445412015e-02  -4.5814144689367439e-02  -4.8187310853113084e-02  -5.0270412569704596e-02  -5.1197885132509682e-02  -5.1434028964334612e-02  -5.0741655030563555e-02  -5.1219345112677540e-02  -5.1230032490775054e-02  -4.9687383025370943e-02  -4.1039387051810684e-02  -4.6048484863361730e-02  -4.8211657841409981e-02  -5.0297760387124919e-02  -4.9040151381802129e-02  -5.1255531814983921e-02  -5.1509305716156785e-02  -5.1437342610012350e-02  -5.1358225380319651e-02  -5.0038785360457839e-02  -3.4195837676676596e-02  -4.0856954405433708e-02  -4.6094377975567424e-02  -4.7501024511987337e-02  -5.0030140619723412e-02  -4.9747343689969498e-02  -5.1533399770881096e-02  -5.1689453909800773e-02  -5.1540169519096270e-02  -5.1667098605797754e-02  -3.1609926338854594e-02  -3.2016569210677789e-02  -3.3560376429811641e-02  -3.3610187307381308e-02  -5.0745139779934299e-02  -4.9911587107722907e-02  -4.9884615240039405e-02  -4.9735712216464931e-02  -4.9651140188527169e-02  -5.0022289000723655e-02  -1.8053618666654989e-02  -4.9400579036062667e-02  -5.1244060381791655e-02  -4.9439597655336426e-02  -4.9121563844960088e-02  -5.0657663393588438e-02  -5.0312624043063740e-02  -3.4185449921270011e-02  -4.6083964698153963e-02  -4.6060229424861383e-02  -1.4810156155485841e-02  -1.3806775886395032e-02  -1.4822303760659182e-02  -4.5256642955550978e-02  -4.6092982954330002e-02  -4.4174524612352224e-02  -4.3472871598284807e-02  -4.7868935306806651e-02  -4.9538964159716592e-02  -4.7436115081722595e-02  -4.9016771043399396e-02  -4.6060060900785370e-02  -4.8923710256254804e-02  -4.5392890276833166e-02  -4.7803046802273028e-02  -4.4296588937352853e-02  -4.5970005887617085e-02  -4.6073747468997873e-02  -4.8777391251210160e-02  -4.5294426035246145e-02  -4.7438574582949977e-02  -4.4150453077373551e-02  -4.5990022503551158e-02  -4.2971471335285415e-02  -4.4775888899683064e-02  -4.2054998476518883e-02  -4.3946743242394448e-02  -4.1413188082076634e-02  -4.3568894100752972e-02  -4.1125042138942601e-02  -4.3706781106114333e-02  -4.2946520118560705e-02  -4.4652497519512876e-02  -4.1929291875526693e-02  -4.3778639272448128e-02  -4.1241008739661016e-02  -4.3381065220186858e-02  -4.0903484658513997e-02  -4.3527264125168136e-02  -4.5542942495387102e-02  -4.5342943097910114e-02  -4.9043277832961710e-02  -4.8868822274280639e-02  -4.5234967057991668e-02  -4.4768261717400365e-02  -4.1516514153216617e-02  -4.4376610616847036e-02  -4.2142480472606325e-02  -4.5368277562782881e-02  -4.2852771019838844e-02  -4.1271164927205319e-02  -4.4153692921368018e-02  -4.1808434195671949e-02  -4.5090948657248442e-02  -4.2464615451439904e-02  -4.9908811861397347e-02  -4.6640316024790289e-02  -4.5835005746217468e-02  -4.4616460134353914e-02  -4.5921123591750421e-02  -4.4754559850285841e-02  -4.6092482162405635e-02  -4.2913091329016800e-02  -3.9609713395297293e-02  -4.3156827970413245e-02  -3.9651981466893638e-02  -4.3574808727142804e-02  -3.6020129572663130e-02  -4.3715764068454115e-02  -4.4751864276639866e-02  -4.1001129965546536e-02  -3.9662581555649064e-02  -3.5835711588468946e-02  -4.4583800437681162e-02  -4.0060816583475198e-02  -4.6079006063629219e-02  -3.9050265609071801e-02  -4.6188747760207385e-02  -3.7754175883335767e-02  -3.7894360995000397e-02  -3.7002138295847121e-02  -4.3020127719448437e-02  -3.8451507286226663e-02  -4.2812999974785139e-02  -3.0686691814881036e-02  -5.0049601969937199e-02  -1.1703346044732761e-02  -4.5705383257127058e-02  -5.0077288525012212e-02  -3.7871034378759182e-02  -3.6791949006176966e-02  -4.1466486078635796e-02  -3.7852780852548985e-02  -4.5573383316249792e-02  -4.5541189494937767e-02  -4.4689533182313140e-02  -4.8101059189495747e-02  -4.6279569951914845e-02  -4.7189826705221150e-02  -4.5698586958706218e-02  -4.3861724140153699e-02  -4.2811315034124213e-02  -4.5821162232209410e-02  -4.4116537559192183e-02  -4.1771753903651128e-02  -4.2519097421994813e-02  -4.0818428666834265e-02  -4.1578770851379052e-02  -4.0413043356504016e-02  -4.1067950116073275e-02  -4.0498160677653869e-02  -4.1042346189033053e-02  -3.7752319319036547e-02  -4.2416081106123854e-02  -4.3158094085641800e-02  -4.2046606733976886e-02  -3.1029746985887747e-02  -4.0882121475411162e-02  -3.7699655397093898e-02  -3.8517737444241217e-02  -3.6272499918696528e-02  -1.0674169920481799e-02  -1.2447641753897981e-02  -1.1781937887411130e-02  -4.4947315440828368e-02  -3.8750261771499192e-02  -4.8702806792970468e-02  -4.3576067135378489e-02  -4.6662558088738322e-02  -3.2567463909267340e-02  -3.3266954819114375e-02  -3.4166079527002555e-02  -3.9717853286730637e-02  -4.3195490573615512e-02  -4.6192627415149429e-02  -4.4484410455225852e-02  -3.9757345644596612e-02  -4.2258182640755787e-02  -4.2872031169712839e-02  -4.2116858532038337e-02  -4.0271277658937447e-02  -4.1374326429636683e-02  -3.7911232228299258e-02  -4.0481790820289798e-02  -4.0894242854017084e-02  -4.1347951547686383e-02  -3.9487630555645012e-02  -4.1903820989020187e-02  -3.8349319292032405e-02  -4.2066211874200225e-02  -4.2556392569169627e-02  -4.3991334149164812e-02  -4.2002583978826821e-02  -4.5469633140927168e-02  -4.1336373928135536e-02  -4.6378622395672323e-02  -3.9733862855347565e-02  -4.4834455733235024e-02  -4.2498008226274496e-02  -4.4367374060394801e-02  -4.1668923809205373e-02  -4.8940471176773796e-02  -4.7427148038817812e-02  -3.7014718568662452e-02  -3.4346243537733315e-02  -4.2518699991161299e-02  -4.1698093343232198e-02  -4.7503337377319863e-02  -4.0016905231467746e-02  -4.7491073469422745e-02  -3.6143769515928979e-02  -3.8672978499788048e-02  -4.1393970914393528e-02  -4.6913788713030542e-02  -3.5271345789255372e-02  -4.1954003693223677e-02  -3.9311036754204741e-02  -3.6554914797128489e-02  -3.6716868873285735e-02  -3.8656445302539602e-02  -4.2200981852598678e-02  -3.7479531805944093e-02  -4.0634210448820117e-02  -3.96308532315