<?xml version="1.0"?>
<VTKFile type="UnstructuredGrid"  version="0.1"  >
<UnstructuredGrid>
<Piece  NumberOfPoints="1297" NumberOfCells="2496">
<Points>
<DataArray  type="Float64"  NumberOfComponents="3"  format="ascii">0 0 0  0 1 0  1 1 0  1 0 0  1.1 -0.1 0  -0.1 -0.1 0  1.1 1.1 0  -0.1 1.1 0  0.3085176863678851 0.6580960234206893 0  0.3091215575424941 0.342404720849971 0  0.6926533552046826 0.3414103978841186 0  0.6927110251088696 0.6589232121313945 0  0.5005529042792827 0.5001835294109079 0  0 0.9499999999997918 0  0 0.8999999999995836 0  0 0.8499999999996529 0  0 0.7999999999999998 0  0 0.7500000000003466 0  0 0.7000000000006934 0  0 0.6500000000010401 0  0 0.6000000000013869 0  0 0.5500000000017335 0  0 0.5000000000020587 0  0 0.4500000000018723 0  0 0.4000000000016644 0  0 0.3500000000014564 0  0 0.3000000000012483 0  0 0.2500000000010403 0  0 0.2000000000008322 0  0 0.1500000000006241 0  0 0.100000000000416 0  0 0.05000000000020799 0  0.04999999999989965 0 0  0.09999999999981467 0 0  0.1499999999997036 0 0  0.1999999999995579 0 0  0.2499999999994121 0 0  0.2999999999992664 0 0  0.3499999999991206 0 0  0.3999999999989749 0 0  0.4499999999988292 0 0  0.4999999999986943 0 0  0.5499999999988151 0 0  0.5999999999989468 0 0  0.6499999999990784 0 0  0.69999999999921 0 0  0.7499999999993417 0 0  0.7999999999994734 0 0  0.8499999999996051 0 0  0.8999999999997368 0 0  0.9499999999998684 0 0  1 0.04999999999989965 0  1 0.09999999999981467 0  1 0.1499999999997036 0  1 0.1999999999995579 0  1 0.2499999999994121 0  1 0.2999999999992664 0  1 0.3499999999991206 0  1 0.3999999999989749 0  1 0.4499999999988292 0  1 0.4999999999986943 0  1 0.5499999999988151 0  1 0.5999999999989468 0  1 0.6499999999990784 0  1 0.69999999999921 0  1 0.7499999999993417 0  1 0.7999999999994734 0  1 0.8499999999996051 0  1 0.8999999999997368 0  1 0.9499999999998684 0  0.9499999999997918 1 0  0.8999999999995836 1 0  0.8499999999996529 1 0  0.7999999999999998 1 0  0.7500000000003466 1 0  0.7000000000006934 1 0  0.6500000000010401 1 0  0.6000000000013869 1 0  0.5500000000017335 1 0  0.5000000000020587 1 0  0.4500000000018723 1 0  0.4000000000016644 1 0  0.3500000000014564 1 0  0.3000000000012483 1 0  0.2500000000010403 1 0  0.2000000000008322 1 0  0.1500000000006241 1 0  0.100000000000416 1 0  0.05000000000020799 1 0  -0.1 1.05000000000004 0  -0.1 1.000000000000079 0  -0.1 0.9500000000001624 0  -0.1 0.9000000000003032 0  -0.1 0.850000000000444 0  -0.1 0.8000000000005848 0  -0.1 0.7500000000007256 0  -0.1 0.7000000000008665 0  -0.1 0.6500000000010508 0  -0.1 0.6000000000012352 0  -0.1 0.5500000000014196 0  -0.1 0.500000000001539 0  -0.1 0.4500000000014195 0  -0.1 0.4000000000013 0  -0.1 0.3500000000011588 0  -0.1 0.3000000000010178 0  -0.1 0.2500000000008986 0  -0.1 0.2000000000007579 0  -0.1 0.1500000000006174 0  -0.1 0.1000000000005272 0  -0.1 0.05000000000040083 0  -0.1 2.671196597248127e-13 0  -0.1 -0.0499999999998666 0  -0.0500000000000906 -0.1 0  -1.730560139634463e-13 -0.1 0  0.04999999999975802 -0.1 0  0.09999999999961506 -0.1 0  0.1499999999994613 -0.1 0  0.199999999999302 -0.1 0  0.2499999999991446 -0.1 0  0.2999999999990088 -0.1 0  0.3499999999988296 -0.1 0  0.3999999999986936 -0.1 0  0.4499999999985143 -0.1 0  0.4999999999984002 -0.1 0  0.5499999999985247 -0.1 0  0.5999999999986493 -0.1 0  0.6499999999987955 -0.1 0  0.6999999999989417 -0.1 0  0.7499999999990659 -0.1 0  0.7999999999992116 -0.1 0  0.8499999999993573 -0.1 0  0.8999999999994526 -0.1 0  0.949999999999584 -0.1 0  0.9999999999997226 -0.1 0  1.049999999999861 -0.1 0  1.1 -0.0500000000000906 0  1.1 -1.730560139634463e-13 0  1.1 0.04999999999975802 0  1.1 0.09999999999961506 0  1.1 0.1499999999994613 0  1.1 0.199999999999302 0  1.1 0.2499999999991446 0  1.1 0.2999999999990088 0  1.1 0.3499999999988296 0  1.1 0.3999999999986936 0  1.1 0.4499999999985143 0  1.1 0.4999999999984002 0  1.1 0.5499999999985247 0  1.1 0.5999999999986493 0  1.1 0.6499999999987955 0  1.1 0.6999999999989417 0  1.1 0.7499999999990659 0  1.1 0.7999999999992116 0  1.1 0.8499999999993573 0  1.1 0.8999999999994526 0  1.1 0.949999999999584 0  1.1 0.9999999999997226 0  1.1 1.049999999999861 0  1.05000000000004 1.1 0  1.000000000000079 1.1 0  0.9500000000001624 1.1 0  0.9000000000003032 1.1 0  0.850000000000444 1.1 0  0.8000000000005848 1.1 0  0.7500000000007256 1.1 0  0.7000000000008665 1.1 0  0.6500000000010508 1.1 0  0.6000000000012352 1.1 0  0.5500000000014196 1.1 0  0.500000000001539 1.1 0  0.4500000000014195 1.1 0  0.4000000000013 1.1 0  0.3500000000011588 1.1 0  0.3000000000010178 1.1 0  0.2500000000008986 1.1 0  0.2000000000007579 1.1 0  0.1500000000006174 1.1 0  0.1000000000005272 1.1 0  0.05000000000040083 1.1 0  2.671196597248127e-13 1.1 0  -0.0499999999998666 1.1 0  0.2989731375150506 0.6457702217063672 0  0.288382004845779 0.629641857074725 0  0.2785054487168719 0.6112608126128508 0  0.2698874879733346 0.5909739348246583 0  0.2629593753987891 0.569367503702338 0  0.257905384986926 0.5467578703359851 0  0.2548461294896894 0.5235106601897398 0  0.2538718409056182 0.5000333882435078 0  0.2549724247831421 0.4764768317387233 0  0.2581476044631326 0.4532328133645706 0  0.2633279949633559 0.430681308863917 0  0.2703743524454496 0.4091563202591351 0  0.2790805067344283 0.3889854873729752 0  0.2890363817744906 0.3706521604583116 0  0.2996570155991981 0.3545867928759431 0  0.3194392520930139 0.3308890535777598 0  0.3330485816088408 0.3178753794946698 0  0.349081507584002 0.3049954118076047 0  0.3671029716897646 0.2930060229117906 0  0.3867975414597985 0.282346154835183 0  0.4078596970822516 0.2733148084685387 0  0.430011539457314 0.2661045991085473 0  0.4529500703287738 0.2608348498960466 0  0.4764501100956424 0.257586678658576 0  0.5002084634219718 0.2564137098052922 0  0.5240035866332504 0.2573290592094015 0  0.5475728896151479 0.2603229417690314 0  0.5706285165171385 0.265354814311722 0  0.5929020192219621 0.2723682185505147 0  0.6141184015187483 0.2812377215004299 0  0.6339948896980337 0.2917894811975763 0  0.6522080078728481 0.3037473485020002 0  0.6684400198862791 0.316675268688902 0  0.6821756704782773 0.3297437939940769 0  0.7023055043426241 0.3538372891700378 0  0.7128858161945663 0.3699208788969731 0  0.7228678800761033 0.3884491037081994 0  0.731560644394302 0.408859983986116 0  0.7385388793015413 0.430563520012296 0  0.7436225433496347 0.453200509011786 0  0.7467171016796796 0.4764661199075422 0  0.7477652293607537 0.5000571850121937 0  0.7467410139935342 0.5236650060029535 0  0.7436607796825848 0.5470233849186963 0  0.7385957341611041 0.5696671917529119 0  0.731617280976405 0.5914118091852042 0  0.7229636405693391 0.6117860765011094 0  0.7129856279259482 0.6303411377159043 0  0.7023991968976564 0.646448292834644 0  0.6822178963400002 0.6706070534341251 0  0.6684349251339481 0.6837197228836592 0  0.6522268804657687 0.6966422556062616 0  0.6340389898993444 0.7085979244229653 0  0.6141952493719697 0.7191530040913007 0  0.5929918214363479 0.7280395347249685 0  0.5707003778461348 0.7350930953356152 0  0.5476447264555235 0.7401617867507659 0  0.5240709947730936 0.743190500670044 0  0.5002551329429854 0.7441431193341638 0  0.4764711863435167 0.7430108069975127 0  0.4529712908409869 0.7398092922937067 0  0.4299858370322032 0.7345821551841641 0  0.4077656297981034 0.7274058133824973 0  0.3866525445169208 0.7184184560664449 0  0.3668548913444478 0.7077549340182395 0  0.3487067953522832 0.695718577371274 0  0.332577378361513 0.682781119352587 0  0.3188883957234703 0.6696902132862302 0  0.3785627859799382 0.3138946961436955 0  0.2848828924438598 0.4418763672176801 0  0.3784032247537562 0.6867280323298415 0  0.2846000714616089 0.55824050044592 0  0.7136886383515798 0.5804972625673116 0  0.6020088413287946 0.6968082094464199 0  0.6216556743971461 0.3121476701207107 0  0.7183949472797888 0.4410333139317945 0  0.7226640330400192 0.5112943295099168 0  0.557388668509851 0.2907249862730616 0  0.4436494562224256 0.2936566571646703 0  0.4422978109642257 0.7072013369248508 0  0.5351643811022395 0.7117915071663544 0  0.2795864985552693 0.4882773850535923 0  0.2945470701117721 0.3982229159800026 0  0.4888841202236326 0.2909721112290952 0  0.299283738119564 0.6006225231574781 0  0.7013163115842458 0.395848977445347 0  0.4886889416377573 0.7133873538026548 0  0.642091360626537 0.6785554812092907 0  0.3410176162626115 0.3351391935064484 0  0.6606285098364125 0.3356469132153159 0  0.3411120685674025 0.6678064704420162 0  0.697305019195486 0.6240234249838124 0  0.3103849196012653 0.3597228527339074 0  0.3115082732496438 0.6398434297137421 0  0.676604090261045 0.6590405885803362 0  0.6917801426170722 0.358655787571482 0  0.3590697170101936 0.6774619131120228 0  0.3690942135632179 0.6588293314507865 0  0.3893235667265345 0.6653988203279877 0  0.3785208590782438 0.6383430893603794 0  0.4003295909546556 0.6432692312725777 0  0.3878459571198371 0.614327693027375 0  0.4146221766047978 0.6182894782614976 0  0.3990423680673149 0.5845267106530418 0  0.3618614875572065 0.6092671583733825 0  0.4322037109839741 0.586875660132165 0  0.412632473270207 0.5490405641503782 0  0.3735475722520711 0.5531757273384994 0  0.3898792283396156 0.5144747895960968 0  0.3523355506284132 0.5162152182320781 0  0.3654630955781463 0.4820208777553801 0  0.4048040411750713 0.4763066489294783 0  0.384362752958159 0.4438678996377515 0  0.4197172421464364 0.4371529987269769 0  0.4002907952158618 0.4064015408168404 0  0.4323249447515905 0.3920100955328683 0  0.3673865770549259 0.4102956077144717 0  0.4089353069598612 0.3716194955534828 0  0.4409924626055496 0.6228572609293156 0  0.4662873264076827 0.596631614561686 0  0.4843303837656502 0.6255623067200377 0  0.502634841297531 0.5988967021613292 0  0.520033663674937 0.6258016153659729 0  0.538118646780688 0.5988323205159866 0  0.5551330534984122 0.6250361797041771 0  0.5729585869236609 0.5983455942729421 0  0.5901857177119892 0.6258898326277075 0  0.6071461469196767 0.5902020389363116 0  0.5918688387604122 0.55623
[...]
<PointData  Scalars="state"> 
<DataArray  type="Float64"  Name="state"  format="ascii">0.0000000000000000e+00  0.0000000000000000e+00  0.0000000000000000e+00  0.0000000000000000e+00  0.0000000000000000e+00  0.0000000000000000e+00  0.0000000000000000e+00  0.0000000000000000e+00  -3.0780760346004184e-02  -3.0748541489542949e-02  -3.0916347008757995e-02  -3.0940464015767187e-02  -6.8914706769354810e-03  0.0000000000000000e+00  0.0000000000000000e+00  0.0000000000000000e+00  0.0000000000000000e+00  0.0000000000000000e+00  0.0000000000000000e+00  0.0000000000000000e+00  0.0000000000000000e+00  0.0000000000000000e+00  0.0000000000000000e+00  0.0000000000000000e+00  0.0000000000000000e+00  0.0000000000000000e+00  0.0000000000000000e+00  0.0000000000000000e+00  0.0000000000000000e+00  0.0000000000000000e+00  0.0000000000000000e+00  0.0000000000000000e+00  0.0000000000000000e+00  0.0000000000000000e+00  0.0000000000000000e+00  0.0000000000000000e+00  0.0000000000000000e+00  0.0000000000000000e+00  0.0000000000000000e+00  0.0000000000000000e+00  0.0000000000000000e+00  0.0000000000000000e+00  0.0000000000000000e+00  0.0000000000000000e+00  0.0000000000000000e+00  0.0000000000000000e+00  0.0000000000000000e+00  0.0000000000000000e+00  0.0000000000000000e+00  0.0000000000000000e+00  0.0000000000000000e+00  0.0000000000000000e+00  0.0000000000000000e+00  0.0000000000000000e+00  0.0000000000000000e+00  0.0000000000000000e+00  0.0000000000000000e+00  0.0000000000000000e+00  0.0000000000000000e+00  0.0000000000000000e+00  0.0000000000000000e+00  0.0000000000000000e+00  0.0000000000000000e+00  0.0000000000000000e+00  0.0000000000000000e+00  0.0000000000000000e+00  0.0000000000000000e+00  0.0000000000000000e+00  0.0000000000000000e+00  0.0000000000000000e+00  0.0000000000000000e+00  0.0000000000000000e+00  0.0000000000000000e+00  0.0000000000000000e+00  0.0000000000000000e+00  0.0000000000000000e+00  0.0000000000000000e+00  0.0000000000000000e+00  0.0000000000000000e+00  0.0000000000000000e+00  0.0000000000000000e+00  0.0000000000000000e+00  0.0000000000000000e+00  0.0000000000000000e+00  0.0000000000000000e+00  0.0000000000000000e+00  0.0000000000000000e+00  0.0000000000000000e+00  0.0000000000000000e+00  0.0000000000000000e+00  0.0000000000000000e+00  0.0000000000000000e+00  0.0000000000000000e+00  0.0000000000000000e+00  0.0000000000000000e+00  0.0000000000000000e+00  0.0000000000000000e+00  0.0000000000000000e+00  0.0000000000000000e+00  0.0000000000000000e+00  0.0000000000000000e+00  0.0000000000000000e+00  0.0000000000000000e+00  0.0000000000000000e+00  0.0000000000000000e+00  0.0000000000000000e+00  0.0000000000000000e+00  0.0000000000000000e+00  0.0000000000000000e+00  0.0000000000000000e+00  0.0000000000000000e+00  0.0000000000000000e+00  0.0000000000000000e+00  0.0000000000000000e+00  0.0000000000000000e+00  0.0000000000000000e+00  0.0000000000000000e+00  0.0000000000000000e+00  0.0000000000000000e+00  0.0000000000000000e+00  0.0000000000000000e+00  0.0000000000000000e+00  0.0000000000000000e+00  0.0000000000000000e+00  0.0000000000000000e+00  0.0000000000000000e+00  0.0000000000000000e+00  0.0000000000000000e+00  0.0000000000000000e+00  0.0000000000000000e+00  0.0000000000000000e+00  0.0000000000000000e+00  0.0000000000000000e+00  0.0000000000000000e+00  0.0000000000000000e+00  0.0000000000000000e+00  0.0000000000000000e+00  0.0000000000000000e+00  0.0000000000000000e+00  0.0000000000000000e+00  0.0000000000000000e+00  0.0000000000000000e+00  0.0000000000000000e+00  0.0000000000000000e+00  0.0000000000000000e+00  0.0000000000000000e+00  0.0000000000000000e+00  0.0000000000000000e+00  0.0000000000000000e+00  0.0000000000000000e+00  0.0000000000000000e+00  0.0000000000000000e+00  0.0000000000000000e+00  0.0000000000000000e+00  0.0000000000000000e+00  0.0000000000000000e+00  0.0000000000000000e+00  0.0000000000000000e+00  0.0000000000000000e+00  0.0000000000000000e+00  0.0000000000000000e+00  0.0000000000000000e+00  0.0000000000000000e+00  0.0000000000000000e+00  0.0000000000000000e+00  0.0000000000000000e+00  0.0000000000000000e+00  0.0000000000000000e+00  0.0000000000000000e+00  0.0000000000000000e+00  0.0000000000000000e+00  0.0000000000000000e+00  0.0000000000000000e+00  0.0000000000000000e+00  0.0000000000000000e+00  0.0000000000000000e+00  0.0000000000000000e+00  0.0000000000000000e+00  0.0000000000000000e+00  0.0000000000000000e+00  0.0000000000000000e+00  -3.0009509478068866e-02  -2.9624635525475340e-02  -2.9177462082428118e-02  -2.8713079213816935e-02  -2.8324087179961759e-02  -2.8023477836457051e-02  -2.7787405826331910e-02  -2.7826963773138331e-02  -2.7847849603146971e-02  -2.8074932511433920e-02  -2.8387365808078189e-02  -2.8741361180289800e-02  -2.9081682802152568e-02  -2.9490641675676166e-02  -2.9891400557857738e-02  -3.0277311272757599e-02  -2.9997150901867234e-02  -2.9751674542834072e-02  -2.9504720356961351e-02  -2.9262687932999722e-02  -2.8924644742841892e-02  -2.8591635945963517e-02  -2.8380066812445037e-02  -2.8180973036325132e-02  -2.8130157404485229e-02  -2.8189288448141819e-02  -2.8369376072294381e-02  -2.8642383762616890e-02  -2.8949145403810217e-02  -2.9357019855240158e-02  -2.9698419531231496e-02  -2.9934032715174662e-02  -3.0175699665421312e-02  -3.0436407318920680e-02  -3.0225516720396143e-02  -2.9724175104424062e-02  -2.9274750624279314e-02  -2.8787594361643676e-02  -2.8392057436726882e-02  -2.8080718498840269e-02  -2.7904289086865097e-02  -2.7817178352709207e-02  -2.7891007404674897e-02  -2.8145771057890411e-02  -2.8453663889125517e-02  -2.8808567335031229e-02  -2.9322656974142127e-02  -2.9784328969701148e-02  -3.0282661628664758e-02  -3.0424644116699474e-02  -3.0149624522795081e-02  -2.9950363656804778e-02  -2.9690502287765843e-02  -2.9339090051079784e-02  -2.8908313260145466e-02  -2.8602882535871555e-02  -2.8288073060991362e-02  -2.8088143295627137e-02  -2.8055430841853288e-02  -2.8141769199988769e-02  -2.8309058436295630e-02  -2.8485148387476358e-02  -2.8832309675917996e-02  -2.9193423093750979e-02  -2.9469201124145365e-02  -2.9760958478948420e-02  -3.0021768792612678e-02  -3.0291492954584286e-02  -2.4123090090371203e-02  -2.3304539246750199e-02  -2.4104682488552676e-02  -2.3301044896176609e-02  -2.4237786807543474e-02  -2.3735617773731250e-02  -2.4262563087423288e-02  -2.3566237743085680e-02  -2.2869995411267479e-02  -2.2884968120116735e-02  -2.2475140921207604e-02  -2.2472962805418391e-02  -2.2300152061239323e-02  -2.2784179349514048e-02  -2.4816527044213881e-02  -2.1560570095985759e-02  -2.3894894701658446e-02  -2.4172359505814506e-02  -2.2104426479098403e-02  -2.5019496126969829e-02  -2.5454098524414628e-02  -2.5351719782745533e-02  -2.5737233732897425e-02  -2.5621778673407342e-02  -2.6704523072491593e-02  -2.6213069127411896e-02  -2.6978685816558733e-02  -2.6906931808492834e-02  -2.4846410820509549e-02  -2.1644176523764918e-02  -2.0645090814615456e-02  -1.8888273023313331e-02  -1.7713579571238498e-02  -1.6150275775492773e-02  -1.4674062620451478e-02  -1.3254701049786932e-02  -1.7852856257337377e-02  -1.1420374629352930e-02  -1.0518571650386376e-02  -1.3585532513342864e-02  -1.1234247254814606e-02  -1.4588084329778117e-02  -1.3399180755058363e-02  -1.0332083757096922e-02  -1.2803133354929021e-02  -1.0718845006479448e-02  -1.3806227451504333e-02  -1.2986331804752005e-02  -1.6147101870301793e-02  -1.6062546252237200e-02  -1.3727503444965471e-02  -1.0843377025405790e-02  -1.2879908038587998e-02  -1.0637137037149079e-02  -1.2997498919963459e-02  -1.1149367558797401e-02  -1.3820679719497343e-02  -1.2431015356772693e-02  -1.5518257021168189e-02  -1.3922886384857383e-02  -1.1037498227621071e-02  -1.3571566757438204e-02  -1.1151707873181671e-02  -1.6422299272270222e-02  -1.6760533072721524e-02  -1.7385050954870095e-02  -1.6736726315671451e-02  -1.6662714513495117e-02  -1.7946848264031902e-02  -1.5416099126397666e-02  -1.2580454258553061e-02  -1.9799602307271388e-02  -1.8150979651603050e-02  -1.6268790070717132e-02  -1.7017153907341886e-02  -1.5754047845832776e-02  -1.2145474996516446e-02  -1.6073849411310952e-02  -1.3046776830156950e-02  -9.7210249603816076e-03  -1.1657589301385466e-02  -1.4495561678808486e-02  -1.4009052614877556e-02  -1.0456683576163563e-02  -1.3602858505191859e-02  -1.6347027750297890e-02  -1.6455693308255456e-02  -1.4687330646402361e-02  -1.8745014029009688e-02  -1.9330879379138150e-02  -2.1164898013590547e-02  -2.1210750912947132e-02  -9.0235661128029096e-03  -1.9440389526880632e-02  -1.9244166958996601e-02  -1.9949081835139566e-02  -1.8144491317666551e-02  -2.1523632871138777e-02  -2.1803959264762501e-02  -2.0282549287486584e-02  -1.6393451015328998e-02  -1.9065568789391626e-02  -2.0849887979320601e-02  -1.8154872462418991e-02  -1.6112227061589532e-02  -1.8486976721177894e-02  -1.9060384009029395e-02  -1.6476396733931885e-02  -1.8780172357866193e-02  -2.0852554299650203e-02  -2.1334991245279412e-02  -2.0112218993098476e-02  -2.0119812332890792e-02  -1.8994630551465951e-02  -2.1356447736423853e-02  -1.6783097754649711e-02  -8.4190710036229771e-03  -2.1088201594812443e-02  -8.4755608840374631e-03  -1.4350170761520602e-02  -1.7588359431101906e-02  -1.4896622733657182e-02  -1.7731178706177183e-02  -2.0033174891901755e-02  -2.0567559935816718e-02  -1.8821112360887193e-02  -1.6888806480320623e-02  -1.8572351958781340e-02  -1.9306314640735331e-02  -1.0102385273409033e-02  -2.3014772543890026e-02  -2.3407190904785158e-02  -1.7254049044855568e-02  -1.9685746007347578e-02  -1.9170153636301934e-02  -1.7501807103301070e-02  -1.8469184347355345e-02  -2.0876502591358027e-02  -1.9150600372176321e-02  -2.0792711679568521e-02  -2.1272543271619024e-02  -2.2576772669670835e-02  -2.4109760601272495e-02  -2.4718661308821270e-02  -1.9990693641602192e-02  -2.2122748960626711e-02  -2.2323681822769205e-02  -2.2499826500881573e-02  -2.4427668047475204e-02  -2.5497259920944624e-02  -2.2875897078136902e-02  -1.9274449347710960e-02  -1.6860158623324302e-02  -2.4149770025542194e-02  -2.3439188890198203e-02  -2.2379004976733837e-02  -2.5070964560090312e-02  -2.2130095796739635e-02  -2.2102019028676839e-02  -2.3681169627248574e-02  -2.5481492839009415e-02  -2.2740676034475792e-02  -2.2309699787480368e-02  -2.3852337654670406e-02  -2.1026851906383273e-02  -2.3146828248024193e-02  -2.0376080857635245e-02  -2.2753826171866689e-02  -2.4498807055018969e-02  -2.5851238914785277e-02  -2.4403239573234703e-02  -2.1350416499278779e-02  -1.8122503477855406e-02  -2.2948740660920505e-02  -2.3662252392108882e-02  -2.1553854372285429e-02  -2.6822529454580180e-02  -2.6830933825483946e-02  -2.6924718307985884e-02  -2.6938043289680524e-02  -2.3209367072033912e-02  -9.6768625762507620e-03  -7.9444694006444525e-03  -1.9830670024215877e-02  -2.3776602350445351e-02  -2.4168580554841560e-02  -2.2904670706480276e-02  -2.5752116945224141e-02  -2.2638542816425581e-02  -2.2055842207302934e-02  -1.8602044689031497e-02  -1.7574681573426312e-02  -2.2353270110439319e-02  -1.7296292780156347e-02  -8.7944575710303171e-03  -8.8617450512118723e-03  -1.2215077108634348e-02  -2.0207411825958324e-02  -2.2020689277944285e-02  -1.8973882986052317e-02  -2.0135349548163404e-02  -1.8978015607076452e-02  -2.3352019518953424e-02  -2.3177595650741727e-02  -9.2244370582296054e-03  -2.3361691339350118e-02  -1.9414832789479124e-02  -2.0331156598181306e-02  -1.6187521729645153e-02  -2.2042959608940017e-02  -1.6419078431594476e-02  -1.2186809403698873e-02  -2.3588111147241964e-02  -7.6208904556509180e-03  -1.5433914587380868e-02  -2.4929238982251540e-02  -1.6825308769362286e-02  -1.9289488514439724e-02  -1.9812315068451339e-02  -9.4925586108267606e-03  -2.3485626364044054e-02  -2.1057117712853127e-02  -1.9144325752544746e-02  -7.3689562961015195e-03  -2.0638250994614450e-02  -1.9234142659613280e-02  -7.9277711403237146e-03  -1.5998543722310257e-02  -1.8974007296017534e-02  -7.4250072354965389e-03  -1.6268900502134382e-02  -2.1204623317104199e-02  -2.1638049165045269e-02  -1.8280958509986414e-02  -1.5323778901617438e-02  -1.9382252980691697e-02  -2.3988203059588837e-02  -1.6682365278337614e-02  -2.8065771434915187e-02  -2.8154139540787212e-02  -2.8045849924271737e-02  -2.8224048861999026e-02  -2.1131645662854821e-02  -2.3323503342515019e-02  -2.1183445826017330e-02  -2.2561011950230411e-02  -1.9759191095022815e-02  -1.5219559222592771e-02  -2.2773481573341397e-02  -2.1770486734704102e-02  -1.8313339954374040e-02  -1.4305000291215168e-02  -1.5625482012300188e-02  -1.3942781251185241e-02  -2.1737178945341901e-02  -1.4266605080809640e-02  -1.9492723041437929e-02  -1.3849462537015241e-02  -7.5440486247574335e-03  -1.8958147345834807e-02  -1.6111734555470013e-02  -1.7800914182835446e-02  -1.9313027526083649e-02  -1.5384157592175884e-02  -1.4411540841861289e-02  -8.6828469987044049e-03  -2.4108863220762469e-02  -3.1724150381823316e-02  -3.2088607628372283e-02  -3.3979572423813456e-02  -3.6437507979404073e-02  -3.3955645244421656e-02  -3.7033884882216962e-02  -3.2039480492616526e-02  -3.3661282859167294e-02  -3.1996700875893125e-02  -3.3729220753765214e-02  -3.6558770764621072e-02  -3.6340584925417842e-02  -1.6951693390378778e-02  -1.5084529208130490e-02  -1.8226224288793200e-02  -1.5715380607118513e-02  -3.2485663954733832e-02  -3.5911182110018675e-02  -3.6055066383670807e-02  -3.2493956191409969e-02  -4.0847605233054113e-02  -4.6198106116888821e-02  -3.3054380424992542e-02  -3.2949729889377929e-02  -3.7718898831618643e-02  -4.7635565286353501e-02  -5.0062443160188923e-02  -4.9749554850782148e-02  -5.1528511652788857e-02  -5.1619823676513917e-02  -1.7310276232315500e-02  -1.6812059309659688e-02  -1.7320195961492289e-02  -1.6804755577501246e-02  -1.7467315326681436e-02  -1.7002898953998966e-02  -1.8057634318102672e-02  -5.1413755541063137e-02  -5.1675734959582047e-02  -4.9889860030015248e-02  -4.8240560485864677e-02  -1.9225531511771761e-02  -1.8536335655881416e-02  -1.7767405960638558e-02  -1.7336458320954731e-02  -1.8805150144854177e-02  -1.7678115988247936e-02  -2.0387480414186476e-02  -1.5883960234075890e-02  -4.8327014720679330e-02  -4.7269284499368340e-02  -1.7824995311813946e-02  -1.6006113382254356e-02  -1.7853100698541249e-02  -4.1104072643993239e-02  -4.5966151258456260e-02  -4.8296762550125862e-02  -5.0435659116390523e-02  -5.1302052389240425e-02  -5.1582391597267893e-02  -5.0945152452778357e-02  -5.1303035671469710e-02  -5.1260252771851651e-02  -4.9812450206693150e-02  -4.1012582047041973e-02  -4.6200124379100170e-02  -4.8317650263341130e-02  -5.0464686979786934e-02  -4.9256583239464753e-02  -5.1358630540178418e-02  -5.1662663185911444e-02  -5.1523097818698793e-02  -5.1385343996721476e-02  -5.0165237388025981e-02  -3.4291520998420949e-02  -4.0920620914240674e-02  -4.6270227271346671e-02  -4.7741544411468058e-02  -5.0249377951330804e-02  -4.9910995849457303e-02  -5.1712462717758742e-02  -5.1812147396850944e-02  -5.1672596785699659e-02  -5.1734647794899488e-02  -3.1834366518797570e-02  -3.2251137585507524e-02  -3.3709897455635206e-02  -3.3752196519915470e-02  -5.0967265264691079e-02  -4.9926881976161949e-02  -4.9828143746027502e-02  -4.9819146027237915e-02  -4.9665553424048943e-02  -4.9963074507418069e-02  -1.8115878111011553e-02  -4.9413428859112332e-02  -5.1228123362282184e-02  -4.9516239314885337e-02  -4.9127474989374802e-02  -5.0623428393175282e-02  -5.0489904208188142e-02  -3.4278809792419998e-02  -4.6035985438817185e-02  -4.6012080689092058e-02  -1.4844781749371290e-02  -1.3839213322453570e-02  -1.4855614502185218e-02  -4.5284229163835781e-02  -4.6110777335593274e-02  -4.4446984281642420e-02  -4.3771079237502258e-02  -4.7800829461206382e-02  -4.9416881711267298e-02  -4.7360230863686313e-02  -4.8882790607187934e-02  -4.5930801860099006e-02  -4.8773089282679344e-02  -4.5166133694429136e-02  -4.7541619503715833e-02  -4.3964475283473622e-02  -4.5582042159422423e-02  -4.5942740962909692e-02  -4.8613372358526995e-02  -4.5066029203771306e-02  -4.7161294730158274e-02  -4.3816650766261893e-02  -4.5599350042748558e-02  -4.2540301615663523e-02  -4.4285525064987272e-02  -4.1544472536781639e-02  -4.3383459673630553e-02  -4.0853823052682703e-02  -4.2972662436907429e-02  -4.0557523562163522e-02  -4.3123757133612536e-02  -4.2514738309788663e-02  -4.4161117476138455e-02  -4.1416472657740643e-02  -4.3212983357337122e-02  -4.0677729791334154e-02  -4.2780216310451764e-02  -4.0330480936562857e-02  -4.2936532742866705e-02  -4.5578076884252555e-02  -4.5432192240497125e-02  -4.9140215523622729e-02  -4.8952467302832786e-02  -4.5265198439437195e-02  -4.4852419224268844e-02  -4.0978414970270015e-02  -4.3848715849240161e-02  -4.1670948139496324e-02  -4.4926964120452315e-02  -4.2471442750451893e-02  -4.0725574544293840e-02  -4.3616014194300827e-02  -4.1327441477666288e-02  -4.4637200463014406e-02  -4.2067411180526974e-02  -5.0097644848505977e-02  -4.6787432541192477e-02  -4.6035903421767055e-02  -4.4144639462109579e-02  -4.5540137200444163e-02  -4.4293569832222664e-02  -4.5720577341404396e-02  -4.2341378757051122e-02  -3.9508202324285674e-02  -4.2588768097178022e-02  -3.9552306220431474e-02  -4.3074087914350204e-02  -3.5518742992686966e-02  -4.3215385876672209e-02  -4.4583016318505461e-02  -4.0907554122873148e-02  -3.9706667795015624e-02  -3.5330146133110828e-02  -4.4420142096402847e-02  -3.9963489713661836e-02  -4.5769956090578899e-02  -3.9089938248799916e-02  -4.5879467544314170e-02  -3.8006754851901366e-02  -3.8115587325531504e-02  -3.7269134017133762e-02  -4.3329574200696441e-02  -3.8531623069585560e-02  -4.2943604121123080e-02  -3.0726360522983574e-02  -4.9969000339759255e-02  -1.1709546761496790e-02  -4.5991068289130799e-02  -5.0003559489010349e-02  -3.7524489675913979e-02  -3.7064432929732820e-02  -4.1767103035611340e-02  -3.7507252969186750e-02  -4.5597548813114674e-02  -4.5558090402357691e-02  -4.4918383966464644e-02  -4.8385590300090368e-02  -4.6575515616121596e-02  -4.7492853088967356e-02  -4.6014426895085607e-02  -4.4158969033877012e-02  -4.3119025210964064e-02  -4.6098900784801333e-02  -4.4430937304088487e-02  -4.2077499876163132e-02  -4.2821301489398930e-02  -4.1114971685445194e-02  -4.1867809577831774e-02  -4.0701618397634365e-02  -4.1347768092060637e-02  -4.0647780483642149e-02  -4.1146317917240209e-02  -3.7830429147868494e-02  -4.2541034522624713e-02  -4.3462545929618866e-02  -4.2339584045305634e-02  -3.1067238984908110e-02  -4.1169843139447937e-02  -3.7693989146992471e-02  -3.8516747792669503e-02  -3.6541569588760051e-02  -1.0680063112849546e-02  -1.2455636117196153e-02  -1.1788958193741553e-02  -4.5134762182833132e-02  -3.8747972959020889e-02  -4.8953525788208288e-02  -4.3816610625433045e-02  -4.6956585325369483e-02  -3.2667930620285723e-02  -3.3332743203701970e-02  -3.4269904599854822e-02  -3.9976739958414789e-02  -4.3501022905484486e-02  -4.6509976430235182e-02  -4.4811113968616437e-02  -4.0055930139509033e-02  -4.2574626955613593e-02  -4.3183304245058979e-02  -4.2422387366425125e-02  -4.0573934858089605e-02  -4.1674235955370502e-02  -3.8195347475637353e-02  -4.0776159040487550e-02  -4.1179784277522800e-02  -4.1641153423963843e-02  -3.9780122034842047e-02  -4.2209813408023045e-02  -3.8639050954554596e-02  -4.2379813261007933e-02  -4.2864264173445375e-02  -4.4313685029827632e-02  -4.2311425130405818e-02  -4.5791822289968601e-02  -4.1624071426537471e-02  -4.6672720207855650e-02  -3.9981929805727963e-02  -4.5076831821922021e-02  -4.2160806159700470e-02  -4.4098148953898658e-02  -4.1261195925918960e-02  -4.8742841045289191e-02  -4.7287074421764101e-02  -3.7288949618024508e-02  -3.4548122308215315e-02  -4.2191759403774454e-02  -4.1301978396767809e-02  -4.7455243905170384e-02  -4.0284079085462013e-02  -4.7211202352227276e-02  -3.6411794439797626e-02  -3.8406730869121532e-02  -4.1671302061749349e-02  -4.7220037730580193e-02  -3.5465397697388636e-02  -4.2141059915267225e-02  -3.9572195547291238e-02  -3.6171959665194126e-02  -3.6415932441562139e-02  -3.8400897183048649e-02  -4.2475089552125110e-02  -3.7631767704661610e-02  -4.0901696810582477e-02  -3.98916680654