<?xml version="1.0"?>
<VTKFile type="UnstructuredGrid"  version="0.1"  >
<UnstructuredGrid>
<Piece  NumberOfPoints="1297" NumberOfCells="2496">
<Points>
<DataArray  type="Float64"  NumberOfComponents="3"  format="ascii">0 0 0  0 1 0  1 1 0  1 0 0  1.1 -0.1 0  -0.1 -0.1 0  1.1 1.1 0  -0.1 1.1 0  0.3079786057940929 0.6583075515271994 0  0.3085968375572796 0.3421945936007502 0  0.6931757044544374 0.3411936118922614 0  0.6932287445883327 0.6591343990108375 0  0.5005511040817622 0.5001831021877553 0  0 0.9499999999997918 0  0 0.8999999999995836 0  0 0.8499999999996529 0  0 0.7999999999999998 0  0 0.7500000000003466 0  0 0.7000000000006934 0  0 0.6500000000010401 0  0 0.6000000000013869 0  0 0.5500000000017335 0  0 0.5000000000020587 0  0 0.4500000000018723 0  0 0.4000000000016644 0  0 0.3500000000014564 0  0 0.3000000000012483 0  0 0.2500000000010403 0  0 0.2000000000008322 0  0 0.1500000000006241 0  0 0.100000000000416 0  0 0.05000000000020799 0  0.04999999999989965 0 0  0.09999999999981467 0 0  0.1499999999997036 0 0  0.1999999999995579 0 0  0.2499999999994121 0 0  0.2999999999992664 0 0  0.3499999999991206 0 0  0.3999999999989749 0 0  0.4499999999988292 0 0  0.4999999999986943 0 0  0.5499999999988151 0 0  0.5999999999989468 0 0  0.6499999999990784 0 0  0.69999999999921 0 0  0.7499999999993417 0 0  0.7999999999994734 0 0  0.8499999999996051 0 0  0.8999999999997368 0 0  0.9499999999998684 0 0  1 0.04999999999989965 0  1 0.09999999999981467 0  1 0.1499999999997036 0  1 0.1999999999995579 0  1 0.2499999999994121 0  1 0.2999999999992664 0  1 0.3499999999991206 0  1 0.3999999999989749 0  1 0.4499999999988292 0  1 0.4999999999986943 0  1 0.5499999999988151 0  1 0.5999999999989468 0  1 0.6499999999990784 0  1 0.69999999999921 0  1 0.7499999999993417 0  1 0.7999999999994734 0  1 0.8499999999996051 0  1 0.8999999999997368 0  1 0.9499999999998684 0  0.9499999999997918 1 0  0.8999999999995836 1 0  0.8499999999996529 1 0  0.7999999999999998 1 0  0.7500000000003466 1 0  0.7000000000006934 1 0  0.6500000000010401 1 0  0.6000000000013869 1 0  0.5500000000017335 1 0  0.5000000000020587 1 0  0.4500000000018723 1 0  0.4000000000016644 1 0  0.3500000000014564 1 0  0.3000000000012483 1 0  0.2500000000010403 1 0  0.2000000000008322 1 0  0.1500000000006241 1 0  0.100000000000416 1 0  0.05000000000020799 1 0  -0.1 1.05000000000004 0  -0.1 1.000000000000079 0  -0.1 0.9500000000001624 0  -0.1 0.9000000000003032 0  -0.1 0.850000000000444 0  -0.1 0.8000000000005848 0  -0.1 0.7500000000007256 0  -0.1 0.7000000000008665 0  -0.1 0.6500000000010508 0  -0.1 0.6000000000012352 0  -0.1 0.5500000000014196 0  -0.1 0.500000000001539 0  -0.1 0.4500000000014195 0  -0.1 0.4000000000013 0  -0.1 0.3500000000011588 0  -0.1 0.3000000000010178 0  -0.1 0.2500000000008986 0  -0.1 0.2000000000007579 0  -0.1 0.1500000000006174 0  -0.1 0.1000000000005272 0  -0.1 0.05000000000040083 0  -0.1 2.671196597248127e-13 0  -0.1 -0.0499999999998666 0  -0.0500000000000906 -0.1 0  -1.730560139634463e-13 -0.1 0  0.04999999999975802 -0.1 0  0.09999999999961506 -0.1 0  0.1499999999994613 -0.1 0  0.199999999999302 -0.1 0  0.2499999999991446 -0.1 0  0.2999999999990088 -0.1 0  0.3499999999988296 -0.1 0  0.3999999999986936 -0.1 0  0.4499999999985143 -0.1 0  0.4999999999984002 -0.1 0  0.5499999999985247 -0.1 0  0.5999999999986493 -0.1 0  0.6499999999987955 -0.1 0  0.6999999999989417 -0.1 0  0.7499999999990659 -0.1 0  0.7999999999992116 -0.1 0  0.8499999999993573 -0.1 0  0.8999999999994526 -0.1 0  0.949999999999584 -0.1 0  0.9999999999997226 -0.1 0  1.049999999999861 -0.1 0  1.1 -0.0500000000000906 0  1.1 -1.730560139634463e-13 0  1.1 0.04999999999975802 0  1.1 0.09999999999961506 0  1.1 0.1499999999994613 0  1.1 0.199999999999302 0  1.1 0.2499999999991446 0  1.1 0.2999999999990088 0  1.1 0.3499999999988296 0  1.1 0.3999999999986936 0  1.1 0.4499999999985143 0  1.1 0.4999999999984002 0  1.1 0.5499999999985247 0  1.1 0.5999999999986493 0  1.1 0.6499999999987955 0  1.1 0.6999999999989417 0  1.1 0.7499999999990659 0  1.1 0.7999999999992116 0  1.1 0.8499999999993573 0  1.1 0.8999999999994526 0  1.1 0.949999999999584 0  1.1 0.9999999999997226 0  1.1 1.049999999999861 0  1.05000000000004 1.1 0  1.000000000000079 1.1 0  0.9500000000001624 1.1 0  0.9000000000003032 1.1 0  0.850000000000444 1.1 0  0.8000000000005848 1.1 0  0.7500000000007256 1.1 0  0.7000000000008665 1.1 0  0.6500000000010508 1.1 0  0.6000000000012352 1.1 0  0.5500000000014196 1.1 0  0.500000000001539 1.1 0  0.4500000000014195 1.1 0  0.4000000000013 1.1 0  0.3500000000011588 1.1 0  0.3000000000010178 1.1 0  0.2500000000008986 1.1 0  0.2000000000007579 1.1 0  0.1500000000006174 1.1 0  0.1000000000005272 1.1 0  0.05000000000040083 1.1 0  2.671196597248127e-13 1.1 0  -0.0499999999998666 1.1 0  0.2984121174399062 0.6459708148655657 0  0.2878390224727506 0.6298128342226212 0  0.2780209182872243 0.611388453741048 0  0.2694935488720566 0.5910567531556543 0  0.2626650065315477 0.5694113496450053 0  0.2577011737669982 0.5467775058689016 0  0.2547046366888245 0.5235192445863518 0  0.2537524238455939 0.5000348659257411 0  0.2548318976360364 0.4764768281494472 0  0.257945549929617 0.4532228896139821 0  0.2630377242564805 0.4306458994026001 0  0.2699869318099567 0.409078778666228 0  0.278607702552001 0.3888594560165943 0  0.2885078302919274 0.370482656324339 0  0.2991094783618339 0.3543911675207315 0  0.3189712316324331 0.3306944563856213 0  0.3326606778782015 0.3177510582349567 0  0.3487921954015093 0.3049884766459078 0  0.3669152747888323 0.2931526207535776 0  0.3867013584364156 0.2826673681091532 0  0.4078334449908827 0.2738132937925609 0  0.4300241755534494 0.2667648844952101 0  0.4529800325549561 0.261621877448945 0  0.4764751921632793 0.2584559508696821 0  0.5002188004338028 0.2573126727498634 0  0.523997871442534 0.2582028442484998 0  0.5475587885423255 0.2611184222730806 0  0.5706273641188172 0.2660265556122985 0  0.5929356869268587 0.272880221994208 0  0.6142159600713968 0.2815715450735586 0  0.6341808627643178 0.2919448473221805 0  0.6524957306331332 0.3037454592459245 0  0.6688265133246799 0.3165514323971117 0  0.6826419207429369 0.3295461505495985 0  0.7028537186242594 0.3536361628032058 0  0.7134163272165179 0.3697488730858677 0  0.7233401456314603 0.3883208656642397 0  0.731943360253537 0.4087767198644117 0  0.7388234469418085 0.4305199804575163 0  0.7438194914040416 0.453185774479148 0  0.7468531979244409 0.4764669346032501 0  0.7478788278014419 0.5000642610556599 0  0.7468751837128341 0.5236771869001677 0  0.7438548086218455 0.5470438599094585 0  0.738876473769396 0.5697157925603281 0  0.7319955204193767 0.5914949740745555 0  0.7234303983441306 0.6119132701851706 0  0.7135109056135399 0.630510374789421 0  0.7029423628279092 0.6466452901179808 0  0.682679972193634 0.6707988331047386 0  0.6688187765632804 0.6838365656587291 0  0.6525122880028263 0.6966395097351349 0  0.6342218675504734 0.7084393413699176 0  0.6142878227970986 0.7188179535022801 0  0.5930190953631852 0.7275267008438152 0  0.5706912607396794 0.7344200437036836 0  0.5476215220471867 0.7393634165753197 0  0.5240553289809072 0.7423119239599933 0  0.5002562502485234 0.7432372719649568 0  0.4764871080900691 0.7421328336201463 0  0.4529907725884273 0.7390115537765605 0  0.4299904613578026 0.7339109915731107 0  0.4077330453342102 0.7268961464638484 0  0.3865503672045809 0.7180873372931795 0  0.3666619702514237 0.7076016278136134 0  0.3484121377423852 0.6957230485795822 0  0.3321814525268428 0.6829054960455659 0  0.31840864812804 0.6698860103196939 0  0.3783741637106142 0.3140595109581264 0  0.2846157875365863 0.4418483343989956 0  0.3782081284404119 0.6865577881541636 0  0.2843306515607472 0.5582743539249424 0  0.7140127711118136 0.5805566427902158 0  0.6021229086434409 0.6964956854660452 0  0.6218412048426821 0.3123259984627327 0  0.7186572671430838 0.4410008432808433 0  0.7228395863685142 0.5113026233562146 0  0.5574218563877017 0.2912827801094605 0  0.4436232938073549 0.2941942392518639 0  0.4422630231284349 0.7066600175687944 0  0.5351743101251871 0.7111643473719892 0  0.2794041374484659 0.4882763487706862 0  0.294145839858491 0.3981331878973892 0  0.4888869654789014 0.2916079171390537 0  0.2988891022412018 0.6007070342308051 0  0.7017111684177912 0.3957583564870382 0  0.4886853206816513 0.7127194155520594 0  0.6423581703949482 0.6785073067699503 0  0.3406605539583244 0.3350749300601435 0  0.6609861589437722 0.3355815670436683 0  0.3407508439866883 0.6678671303886845 0  0.697749373080075 0.6241466067355068 0  0.309908005627728 0.359572295053354 0  0.3110287792774293 0.6399904318516964 0  0.6770307838090013 0.6591748828016666 0  0.6922593188960952 0.358498819792813 0  0.3587927238653556 0.6774184149104179 0  0.3688420240378594 0.6587535180663209 0  0.3891366566427189 0.6652263326936675 0  0.3782926409547088 0.6382548933568618 0  0.4001583432658283 0.6431048972645 0  0.3876455901514983 0.6142391355421929 0  0.4144778076008099 0.6181386340027867 0  0.3988734192129039 0.5844514841017171 0  0.3616013653931184 0.6092429094987405 0  0.4320924134669453 0.5867556312214708 0  0.4124957096214781 0.5489906249277766 0  0.373352028647623 0.5531524180085146 0  0.3897184241519996 0.5144652332578493 0  0.3521346914550451 0.5162136261777005 0  0.3652753048162345 0.4820281339215935 0  0.4046622873025927 0.4763280321781684 0  0.384184209907356 0.4439031294870021 0  0.4195913944874845 0.4372241523302681 0  0.4001257910672936 0.4064890667508889 0  0.4322175356686827 0.3921683697761844 0  0.3671596329182912 0.4103266148567758 0  0.4087856176948134 0.3717762582052452 0  0.4408973775713288 0.6226506026082419 0  0.4662315601142023 0.59646287751627 0  0.4843042055408968 0.6253062291787117 0  0.502635327116699 0.5987118503503512 0  0.5200593564522624 0.6255454240866091 0  0.5381738414459299 0.5986602734686117 0  0.5552132056748579 0.6248163061201559 0  0.5730707233051709 0.5982088280592752 0  0.5903296270039364 0.6257316807770513 0  0.6073178470101148 0.5901261967354021 0  0.5920057739185
[...]
<PointData  Scalars="state"> 
<DataArray  type="Float64"  Name="state"  format="ascii">0.0000000000000000e+00  0.0000000000000000e+00  0.0000000000000000e+00  0.0000000000000000e+00  0.0000000000000000e+00  0.0000000000000000e+00  0.0000000000000000e+00  0.0000000000000000e+00  -3.0839208687200526e-02  -3.0806247732660965e-02  -3.0975384953926745e-02  -3.0999219649846661e-02  -6.8924730593374981e-03  0.0000000000000000e+00  0.0000000000000000e+00  0.0000000000000000e+00  0.0000000000000000e+00  0.0000000000000000e+00  0.0000000000000000e+00  0.0000000000000000e+00  0.0000000000000000e+00  0.0000000000000000e+00  0.0000000000000000e+00  0.0000000000000000e+00  0.0000000000000000e+00  0.0000000000000000e+00  0.0000000000000000e+00  0.0000000000000000e+00  0.0000000000000000e+00  0.0000000000000000e+00  0.0000000000000000e+00  0.0000000000000000e+00  0.0000000000000000e+00  0.0000000000000000e+00  0.0000000000000000e+00  0.0000000000000000e+00  0.0000000000000000e+00  0.0000000000000000e+00  0.0000000000000000e+00  0.0000000000000000e+00  0.0000000000000000e+00  0.0000000000000000e+00  0.0000000000000000e+00  0.0000000000000000e+00  0.0000000000000000e+00  0.0000000000000000e+00  0.0000000000000000e+00  0.0000000000000000e+00  0.0000000000000000e+00  0.0000000000000000e+00  0.0000000000000000e+00  0.0000000000000000e+00  0.0000000000000000e+00  0.0000000000000000e+00  0.0000000000000000e+00  0.0000000000000000e+00  0.0000000000000000e+00  0.0000000000000000e+00  0.0000000000000000e+00  0.0000000000000000e+00  0.0000000000000000e+00  0.0000000000000000e+00  0.0000000000000000e+00  0.0000000000000000e+00  0.0000000000000000e+00  0.0000000000000000e+00  0.0000000000000000e+00  0.0000000000000000e+00  0.0000000000000000e+00  0.0000000000000000e+00  0.0000000000000000e+00  0.0000000000000000e+00  0.0000000000000000e+00  0.0000000000000000e+00  0.0000000000000000e+00  0.0000000000000000e+00  0.0000000000000000e+00  0.0000000000000000e+00  0.0000000000000000e+00  0.0000000000000000e+00  0.0000000000000000e+00  0.0000000000000000e+00  0.0000000000000000e+00  0.0000000000000000e+00  0.0000000000000000e+00  0.0000000000000000e+00  0.0000000000000000e+00  0.0000000000000000e+00  0.0000000000000000e+00  0.0000000000000000e+00  0.0000000000000000e+00  0.0000000000000000e+00  0.0000000000000000e+00  0.0000000000000000e+00  0.0000000000000000e+00  0.0000000000000000e+00  0.0000000000000000e+00  0.0000000000000000e+00  0.0000000000000000e+00  0.0000000000000000e+00  0.0000000000000000e+00  0.0000000000000000e+00  0.0000000000000000e+00  0.0000000000000000e+00  0.0000000000000000e+00  0.0000000000000000e+00  0.0000000000000000e+00  0.0000000000000000e+00  0.0000000000000000e+00  0.0000000000000000e+00  0.0000000000000000e+00  0.0000000000000000e+00  0.0000000000000000e+00  0.0000000000000000e+00  0.0000000000000000e+00  0.0000000000000000e+00  0.0000000000000000e+00  0.0000000000000000e+00  0.0000000000000000e+00  0.0000000000000000e+00  0.0000000000000000e+00  0.0000000000000000e+00  0.0000000000000000e+00  0.0000000000000000e+00  0.0000000000000000e+00  0.0000000000000000e+00  0.0000000000000000e+00  0.0000000000000000e+00  0.0000000000000000e+00  0.0000000000000000e+00  0.0000000000000000e+00  0.0000000000000000e+00  0.0000000000000000e+00  0.0000000000000000e+00  0.0000000000000000e+00  0.0000000000000000e+00  0.0000000000000000e+00  0.0000000000000000e+00  0.0000000000000000e+00  0.0000000000000000e+00  0.0000000000000000e+00  0.0000000000000000e+00  0.0000000000000000e+00  0.0000000000000000e+00  0.0000000000000000e+00  0.0000000000000000e+00  0.0000000000000000e+00  0.0000000000000000e+00  0.0000000000000000e+00  0.0000000000000000e+00  0.0000000000000000e+00  0.0000000000000000e+00  0.0000000000000000e+00  0.0000000000000000e+00  0.0000000000000000e+00  0.0000000000000000e+00  0.0000000000000000e+00  0.0000000000000000e+00  0.0000000000000000e+00  0.0000000000000000e+00  0.0000000000000000e+00  0.0000000000000000e+00  0.0000000000000000e+00  0.0000000000000000e+00  0.0000000000000000e+00  0.0000000000000000e+00  0.0000000000000000e+00  0.0000000000000000e+00  0.0000000000000000e+00  0.0000000000000000e+00  0.0000000000000000e+00  0.0000000000000000e+00  0.0000000000000000e+00  0.0000000000000000e+00  0.0000000000000000e+00  0.0000000000000000e+00  0.0000000000000000e+00  0.0000000000000000e+00  0.0000000000000000e+00  0.0000000000000000e+00  0.0000000000000000e+00  -3.0063636461728615e-02  -2.9666115888270055e-02  -2.9200901039162386e-02  -2.8716586522350585e-02  -2.8308998372924447e-02  -2.7993701829519099e-02  -2.7748468441613390e-02  -2.7784674509435860e-02  -2.7808673876540700e-02  -2.8044938487611207e-02  -2.8371943560766257e-02  -2.8744571471421662e-02  -2.9104836163867012e-02  -2.9531492718129392e-02  -2.9944534975011185e-02  -3.0335761323269400e-02  -3.0049186794901359e-02  -2.9790226034257794e-02  -2.9526616827567957e-02  -2.9267061994439299e-02  -2.8913215268810067e-02  -2.8568276271540561e-02  -2.8348195927801727e-02  -2.8144207267120008e-02  -2.8091658950799424e-02  -2.8151962981354587e-02  -2.8336750784152216e-02  -2.8618531202291131e-02  -2.8936933070921426e-02  -2.9360982784938851e-02  -2.9720444792966118e-02  -2.9973178633707642e-02  -3.0228877955795330e-02  -3.0496314109552961e-02  -3.0279999352455719e-02  -2.9766637611566463e-02  -2.9299128437766712e-02  -2.8791899113514666e-02  -2.8377926422555547e-02  -2.8051858073679388e-02  -2.7866197840657685e-02  -2.7776005033001414e-02  -2.7852963095780916e-02  -2.8116898800752018e-02  -2.8439580209527290e-02  -2.8812864050018167e-02  -2.9346836597400096e-02  -2.9826483946787174e-02  -3.0336872994905961e-02  -3.0484380263752362e-02  -3.0203028601996532e-02  -2.9990606445664880e-02  -2.9713569929856461e-02  -2.9344003412379690e-02  -2.8897086055892023e-02  -2.8579951292397206e-02  -2.8256579158668804e-02  -2.8051942625042309e-02  -2.8017438681415770e-02  -2.8105155552889931e-02  -2.8277176273136837e-02  -2.8461610228524496e-02  -2.8820942043454371e-02  -2.9198095538147933e-02  -2.9491103507065099e-02  -2.9799609495559768e-02  -3.0074421489494955e-02  -3.0350791953894635e-02  -2.4137770327440224e-02  -2.3293238432250181e-02  -2.4119669316080217e-02  -2.3289591814272807e-02  -2.4237997789767828e-02  -2.3741227362088353e-02  -2.4277273360504052e-02  -2.3555401105407256e-02  -2.2846921564529808e-02  -2.2873449468865829e-02  -2.2464822556363454e-02  -2.2463507622076429e-02  -2.2286336307158754e-02  -2.2760082786294503e-02  -2.4829560118275206e-02  -2.1545929171661666e-02  -2.3907006736926185e-02  -2.4187539625287000e-02  -2.2088319582198104e-02  -2.5045872845298904e-02  -2.5487489037427889e-02  -2.5385398195890078e-02  -2.5771423055920874e-02  -2.5649989638247075e-02  -2.6742527319278276e-02  -2.6250102338991669e-02  -2.7021094948696259e-02  -2.6946573559861804e-02  -2.4871609964083340e-02  -2.1660354391038018e-02  -2.0655198800931925e-02  -1.8898995211395951e-02  -1.7720423234194274e-02  -1.6156143876400662e-02  -1.4677960741209495e-02  -1.3256303433013773e-02  -1.7861216240208051e-02  -1.1422261450816252e-02  -1.0518159628129428e-02  -1.3583645297120051e-02  -1.1231095577822038e-02  -1.4581587081713357e-02  -1.3393840791599679e-02  -1.0330081943058012e-02  -1.2801741348774836e-02  -1.0719184587933148e-02  -1.3808592241369202e-02  -1.2988976303175085e-02  -1.6150703831798712e-02  -1.6067365358982014e-02  -1.3730463323154243e-02  -1.0846167312628816e-02  -1.2882463531385117e-02  -1.0640423092920175e-02  -1.3000232079009733e-02  -1.1152615786035096e-02  -1.3823994037140007e-02  -1.2434221567596718e-02  -1.5523811313867446e-02  -1.3925804693490368e-02  -1.1037879796169124e-02  -1.3570570906438591e-02  -1.1149643342170073e-02  -1.6426240256486910e-02  -1.6758479926468239e-02  -1.7388847523029407e-02  -1.6735306527856764e-02  -1.6657802046059988e-02  -1.7936346181294877e-02  -1.5417798054376351e-02  -1.2582988223036639e-02  -1.9803966241708899e-02  -1.8152381932475953e-02  -1.6266575172938984e-02  -1.7015614968099665e-02  -1.5753204666378681e-02  -1.2147894761629197e-02  -1.6072219509670135e-02  -1.3049164979662031e-02  -9.7233970013223675e-03  -1.1660543609520124e-02  -1.4498946324001054e-02  -1.4012750589699528e-02  -1.0457177934110662e-02  -1.3604122730390822e-02  -1.6353333783925519e-02  -1.6459824149821417e-02  -1.4686401147577665e-02  -1.8755559885460703e-02  -1.9338378803198442e-02  -2.1180740912414391e-02  -2.1228334899026837e-02  -9.0232143673019925e-03  -1.9444185172966286e-02  -1.9254708142029960e-02  -1.9945066713151317e-02  -1.8136231093110831e-02  -2.1536039099376472e-02  -2.1822755400416966e-02  -2.0297811807235749e-02  -1.6392161242316808e-02  -1.9058418777497428e-02  -2.0838824565033616e-02  -1.8151264227547658e-02  -1.6108738798297596e-02  -1.8489359447259768e-02  -1.9069484866151423e-02  -1.6468309833512322e-02  -1.8772099114319925e-02  -2.0861231471089255e-02  -2.1351138058562782e-02  -2.0126271008234001e-02  -2.0110568814828329e-02  -1.8993135631271640e-02  -2.1339083603287769e-02  -1.6783968096479474e-02  -8.4201679799406313e-03  -2.1088868899408544e-02  -8.4755316679983664e-03  -1.4344940463424256e-02  -1.7577884152877043e-02  -1.4890495405976560e-02  -1.7721878422017300e-02  -2.0017667687884561e-02  -2.0554181414067681e-02  -1.8816249884492750e-02  -1.6895654916075521e-02  -1.8579836193297436e-02  -1.9292640603266204e-02  -1.0100964158905998e-02  -2.3038347398521234e-02  -2.3429195029839995e-02  -1.7262759323160546e-02  -1.9698059372160764e-02  -1.9181568700207641e-02  -1.7508740798681904e-02  -1.8471371677704906e-02  -2.0886904877831989e-02  -1.9156679488399626e-02  -2.0807626801363853e-02  -2.1276467893231645e-02  -2.2598486068335578e-02  -2.4136917873734991e-02  -2.4743298176838603e-02  -1.9974276477648330e-02  -2.2106242501241265e-02  -2.2309456655807969e-02  -2.2521739154600547e-02  -2.4457292341148518e-02  -2.5523740124819512e-02  -2.2872878776371286e-02  -1.9274196363354576e-02  -1.6863813683388310e-02  -2.4163747553581950e-02  -2.3444415804882806e-02  -2.2376609934511266e-02  -2.5095850081225078e-02  -2.2127646550338442e-02  -2.2088315039080073e-02  -2.3685610736842271e-02  -2.5508089078020383e-02  -2.2758419441297362e-02  -2.2293187086136080e-02  -2.3853254643423007e-02  -2.1025230960116933e-02  -2.3143829761691666e-02  -2.0380761523931829e-02  -2.2743916594145337e-02  -2.4514663321911656e-02  -2.5886713773047944e-02  -2.4432472444573750e-02  -2.1357319193270798e-02  -1.8116560367479502e-02  -2.2972284159451451e-02  -2.3667317350427888e-02  -2.1569380459456132e-02  -2.6863771948226516e-02  -2.6872613123796997e-02  -2.6964141398130349e-02  -2.6980671168339011e-02  -2.3199211159572887e-02  -9.6783779428136780e-03  -7.9462750494024136e-03  -1.9817062070993027e-02  -2.3775220671077357e-02  -2.4168109240007386e-02  -2.2921233819868232e-02  -2.5781074451621713e-02  -2.2623012528687366e-02  -2.2073528474862377e-02  -1.8596045689292212e-02  -1.7575414011046057e-02  -2.2335906439484965e-02  -1.7285456709958093e-02  -8.7936141804732092e-03  -8.8626779599945884e-03  -1.2213519133389120e-02  -2.0222008144743113e-02  -2.2037734891319733e-02  -1.8967077251141749e-02  -2.0139405993695538e-02  -1.8973973121750864e-02  -2.3325488007219050e-02  -2.3153775842949878e-02  -9.2258741225156992e-03  -2.3382733126004137e-02  -1.9410226066612843e-02  -2.0336149708949581e-02  -1.6191687768571411e-02  -2.2048920180289734e-02  -1.6419993636776587e-02  -1.2183661793384891e-02  -2.3567947850714702e-02  -7.6220316727173354e-03  -1.5436750776701718e-02  -2.4960601667702694e-02  -1.6826039210823669e-02  -1.9284376486105016e-02  -1.9811494926438994e-02  -9.4947411917223768e-03  -2.3465998248666239e-02  -2.1067224544940328e-02  -1.9136270356496683e-02  -7.3695550743319406e-03  -2.0631846252406241e-02  -1.9244935488643828e-02  -7.9295112872581706e-03  -1.5994221240693683e-02  -1.8966757346342074e-02  -7.4254746451687219e-03  -1.6267303699425799e-02  -2.1200852633204561e-02  -2.1649195504744666e-02  -1.8289067954199576e-02  -1.5323615965792028e-02  -1.9379759417959625e-02  -2.3966581717930934e-02  -1.6683638666918087e-02  -2.8112786587842095e-02  -2.8202338065853733e-02  -2.8093688610682989e-02  -2.8272216300619983e-02  -2.1142325821309045e-02  -2.3347810059993285e-02  -2.1174111069862375e-02  -2.2568770150653610e-02  -1.9756666639933751e-02  -1.5223532366763309e-02  -2.2795358403449918e-02  -2.1784093949856177e-02  -1.8322607470856532e-02  -1.4307313009704488e-02  -1.5625455307942022e-02  -1.3944438734283773e-02  -2.1736076103571537e-02  -1.4268633242899322e-02  -1.9495217080769116e-02  -1.3846127273970615e-02  -7.5454406063829556e-03  -1.8955024711944615e-02  -1.6114905462200447e-02  -1.7805444428756173e-02  -1.9304315531683068e-02  -1.5376365654477924e-02  -1.4413733559987690e-02  -8.6825961276616632e-03  -2.4135089934933043e-02  -3.1727735703577904e-02  -3.2094619720266879e-02  -3.3995025855463469e-02  -3.6458783737304448e-02  -3.3971666342060870e-02  -3.7056527596756567e-02  -3.2043829756590411e-02  -3.3674495509151366e-02  -3.2000652783945031e-02  -3.3743563743831854e-02  -3.6581150234482614e-02  -3.6361497825449680e-02  -1.6954200297276508e-02  -1.5087028125982999e-02  -1.8228530947007108e-02  -1.5717956233163865e-02  -3.2447705954884297e-02  -3.5898331765897337e-02  -3.6043527358570270e-02  -3.2456229299386324e-02  -4.0836018656816825e-02  -4.6168511266273971e-02  -3.3022574859283338e-02  -3.2915882518843705e-02  -3.7707354364266511e-02  -4.7594754921539029e-02  -5.0026225936997237e-02  -4.9723234297898350e-02  -5.1499496400848686e-02  -5.1600743899987603e-02  -1.7350213680475270e-02  -1.6850030314208484e-02  -1.7359171624823720e-02  -1.6843172161732513e-02  -1.7452972957568005e-02  -1.6989350791972880e-02  -1.8043626966559596e-02  -5.1393163802879713e-02  -5.1667514705830538e-02  -4.9846323561917288e-02  -4.8191755317420329e-02  -1.9197431239339337e-02  -1.8513112764330299e-02  -1.7745935185096300e-02  -1.7311728121254092e-02  -1.8777531219368978e-02  -1.7652752106804215e-02  -2.0359640199984413e-02  -1.5903460207887521e-02  -4.8279695375791812e-02  -4.7216453962974914e-02  -1.7846180064135318e-02  -1.6025299039130338e-02  -1.7874205373502990e-02  -4.1106211948620450e-02  -4.5940178707439716e-02  -4.8278992877618596e-02  -5.0408365423720215e-02  -5.1285762219122268e-02  -5.1558232097070632e-02  -5.0911036207825555e-02  -5.1290378584930220e-02  -5.1257091833357776e-02  -4.9792281029093555e-02  -4.1016347328030986e-02  -4.6174056334061582e-02  -4.8300276821978849e-02  -5.0436862676081218e-02  -4.9219620160415888e-02  -5.1342321364548825e-02  -5.1637401565763866e-02  -5.1509908370959458e-02  -5.1382569845405741e-02  -5.0144669876289509e-02  -3.4273984621514646e-02  -4.0908046244058853e-02  -4.6239747307102154e-02  -4.7699732067907036e-02  -5.0212036544176622e-02  -4.9883593102351645e-02  -5.1682578954066104e-02  -5.1792381465941388e-02  -5.1651086255857945e-02  -5.1724720326876854e-02  -3.1795113280308589e-02  -3.2209910684339975e-02  -3.3683290734626462e-02  -3.3726831383584531e-02  -5.0929518348953005e-02  -4.9926133424214370e-02  -4.9840126988990686e-02  -4.9806239216631243e-02  -4.9665081941989035e-02  -4.9975666220710036e-02  -1.8105294207582751e-02  -4.9413072895285792e-02  -5.1232981642736347e-02  -4.9504612716462032e-02  -4.9128427599816248e-02  -5.0631611193751452e-02  -5.0460342185954798e-02  -3.4261882042069487e-02  -4.6046275010779625e-02  -4.6022484707281291e-02  -1.4838950893990560e-02  -1.3833770836099393e-02  -1.4850050862634330e-02  -4.5281103414856451e-02  -4.6109342843978503e-02  -4.4399228743539770e-02  -4.3717959770793680e-02  -4.7814753767157457e-02  -4.9440416883427471e-02  -4.7375605086431335e-02  -4.8908521614757415e-02  -4.5955501163430834e-02  -4.8801654716500137e-02  -4.5208044581889643e-02  -4.7589679034722956e-02  -4.4024966783417538e-02  -4.5652425531293860e-02  -4.5967805636691422e-02  -4.8644369403622365e-02  -4.5108243015064907e-02  -4.7212171695165429e-02  -4.3877416902007568e-02  -4.5670196675706043e-02  -4.2618251785071601e-02  -4.4374008328448185e-02  -4.1636468542925534e-02  -4.3484885393487514e-02  -4.0954480522299518e-02  -4.3079950240968390e-02  -4.0659621698700125e-02  -4.3228695240991329e-02  -4.2592844254226242e-02  -4.4249832712281202e-02  -4.1508941530844383e-02  -4.3314901662436449e-02  -4.0779159412799672e-02  -4.2888410511930111e-02  -4.0433631144081522e-02  -4.3042925305172841e-02  -4.5573512729234475e-02  -4.5417942250560873e-02  -4.9124633082641520e-02  -4.8939389180495549e-02  -4.5261556263483327e-02  -4.4839113952059619e-02  -4.1075293350502570e-02  -4.3943851593028237e-02  -4.1756013863779091e-02  -4.5006741113308463e-02  -4.2540543695990293e-02  -4.0823855285329183e-02  -4.3712967040013248e-02  -4.1414254248828442e-02  -4.4719266044557969e-02  -4.2139393249016666e-02  -5.0065866157699167e-02  -4.6762913002270597e-02  -4.6001624333323395e-02  -4.4229781492594406e-02  -4.5609243388790070e-02  -4.4376690329019607e-02  -4.5787976135761868e-02  -4.2444207269963168e-02  -3.9527711065475930e-02  -4.2690884644047682e-02  -3.9571522759932989e-02  -4.3164269922817883e-02  -3.5608935590794998e-02  -4.3305455745164513e-02  -4.4614624165060048e-02  -4.0925682945069361e-02  -3.9700167501470249e-02  -3.5421163890050830e-02  -4.4450909207577667e-02  -3.9982302399345027e-02  -4.5826215335854216e-02  -3.9084238788083231e-02  -4.5935801508630060e-02  -3.7961997095824686e-02  -3.8076980954341998e-02  -3.7221043085740008e-02  -4.3273523071414265e-02  -3.8518609189742654e-02  -4.2921804444052636e-02  -3.0720195486316458e-02  -4.9985153214089827e-02  -1.1708674719293471e-02  -4.5940498855216845e-02  -5.0018653360830084e-02  -3.7587336643531359e-02  -3.7014535215646578e-02  -4.1711635263526128e-02  -3.7569870386611776e-02  -4.5594357431291047e-02  -4.5556009765688958e-02  -4.4877793882327675e-02  -4.8335881400043135e-02  -4.6523082815601295e-02  -4.7439487336628297e-02  -4.5958001542702541e-02  -4.4106176929861067e-02  -4.3063477748653545e-02  -4.6050328212907915e-02  -4.4373796155965074e-02  -4.2021394214776901e-02  -4.2765358986881802e-02  -4.1059737518592633e-02  -4.1813600112687942e-02  -4.0647338317809451e-02  -4.1294967113200839e-02  -4.0622443106569678e-02  -4.1129178816374019e-02  -3.7817787502534443e-02  -4.2520292508067013e-02  -4.3406763166804897e-02  -4.2285110616803220e-02  -3.1061513807179822e-02  -4.1115600176213164e-02  -3.7696342029183295e-02  -3.8518262520536729e-02  -3.6491226841342136e-02  -1.0679211578268708e-02  -1.2454460002575496e-02  -1.1787946064536967e-02  -4.5102151233004442e-02  -3.8746224908053455e-02  -4.8910378740520760e-02  -4.3774865122904121e-02  -4.6905076488008964e-02  -3.2651017891447025e-02  -3.3322029615780381e-02  -3.4252474849847767e-02  -3.9931101029744599e-02  -4.3446624713780413e-02  -4.6453734315588878e-02  -4.4752280854685945e-02  -4.0001876642890274e-02  -4.2516688154389984e-02  -4.3126413182781022e-02  -4.2365715213440798e-02  -4.0517767901924656e-02  -4.1618032746563387e-02  -3.8142184445042283e-02  -4.0720808546296200e-02  -4.1126058711300935e-02  -4.1586038976385929e-02  -3.9725375540432269e-02  -4.2152907008817922e-02  -3.8585402336997331e-02  -4.2322384527668226e-02  -4.2807773551327311e-02  -4.4255382308281591e-02  -4.2255787145112661e-02  -4.5734530517759213e-02  -4.1573004260569674e-02  -4.6621327902150331e-02  -3.9938497622937885e-02  -4.5035025438423512e-02  -4.2221870540001920e-02  -4.4147275398842792e-02  -4.1334759425822327e-02  -4.8779622112871457e-02  -4.7313460200848097e-02  -3.7238987140142975e-02  -3.4512861226271348e-02  -4.2250911387954324e-02  -4.1373393902273001e-02  -4.7465265270239261e-02  -4.0234510336322173e-02  -4.7262537919740277e-02  -3.6361973750009859e-02  -3.8455174322825622e-02  -4.1620380737451661e-02  -4.7166307198578929e-02  -3.5431781662497733e-02  -4.2109177207511943e-02  -3.9523400635375079e-02  -3.6241147825468972e-02  -3.6470601089673677e-02  -3.8447373751614992e-02  -4.2425294302129199e-02  -3.7605816119762409e-02  -4.0852487040245120e-02  -3.98432283350