<?xml version="1.0"?>
<VTKFile type="UnstructuredGrid"  version="0.1"  >
<UnstructuredGrid>
<Piece  NumberOfPoints="1297" NumberOfCells="2496">
<Points>
<DataArray  type="Float64"  NumberOfComponents="3"  format="ascii">0 0 0  0 1 0  1 1 0  1 0 0  1.1 -0.1 0  -0.1 -0.1 0  1.1 1.1 0  -0.1 1.1 0  0.3070254042688466 0.6587048230071321 0  0.3076644465697692 0.3418001556151962 0  0.694104151629903 0.3407907743049527 0  0.6941498278514052 0.6595277770597072 0  0.5005481348094496 0.5001821975515343 0  0 0.9499999999997918 0  0 0.8999999999995836 0  0 0.8499999999996529 0  0 0.7999999999999998 0  0 0.7500000000003466 0  0 0.7000000000006934 0  0 0.6500000000010401 0  0 0.6000000000013869 0  0 0.5500000000017335 0  0 0.5000000000020587 0  0 0.4500000000018723 0  0 0.4000000000016644 0  0 0.3500000000014564 0  0 0.3000000000012483 0  0 0.2500000000010403 0  0 0.2000000000008322 0  0 0.1500000000006241 0  0 0.100000000000416 0  0 0.05000000000020799 0  0.04999999999989965 0 0  0.09999999999981467 0 0  0.1499999999997036 0 0  0.1999999999995579 0 0  0.2499999999994121 0 0  0.2999999999992664 0 0  0.3499999999991206 0 0  0.3999999999989749 0 0  0.4499999999988292 0 0  0.4999999999986943 0 0  0.5499999999988151 0 0  0.5999999999989468 0 0  0.6499999999990784 0 0  0.69999999999921 0 0  0.7499999999993417 0 0  0.7999999999994734 0 0  0.8499999999996051 0 0  0.8999999999997368 0 0  0.9499999999998684 0 0  1 0.04999999999989965 0  1 0.09999999999981467 0  1 0.1499999999997036 0  1 0.1999999999995579 0  1 0.2499999999994121 0  1 0.2999999999992664 0  1 0.3499999999991206 0  1 0.3999999999989749 0  1 0.4499999999988292 0  1 0.4999999999986943 0  1 0.5499999999988151 0  1 0.5999999999989468 0  1 0.6499999999990784 0  1 0.69999999999921 0  1 0.7499999999993417 0  1 0.7999999999994734 0  1 0.8499999999996051 0  1 0.8999999999997368 0  1 0.9499999999998684 0  0.9499999999997918 1 0  0.8999999999995836 1 0  0.8499999999996529 1 0  0.7999999999999998 1 0  0.7500000000003466 1 0  0.7000000000006934 1 0  0.6500000000010401 1 0  0.6000000000013869 1 0  0.5500000000017335 1 0  0.5000000000020587 1 0  0.4500000000018723 1 0  0.4000000000016644 1 0  0.3500000000014564 1 0  0.3000000000012483 1 0  0.2500000000010403 1 0  0.2000000000008322 1 0  0.1500000000006241 1 0  0.100000000000416 1 0  0.05000000000020799 1 0  -0.1 1.05000000000004 0  -0.1 1.000000000000079 0  -0.1 0.9500000000001624 0  -0.1 0.9000000000003032 0  -0.1 0.850000000000444 0  -0.1 0.8000000000005848 0  -0.1 0.7500000000007256 0  -0.1 0.7000000000008665 0  -0.1 0.6500000000010508 0  -0.1 0.6000000000012352 0  -0.1 0.5500000000014196 0  -0.1 0.500000000001539 0  -0.1 0.4500000000014195 0  -0.1 0.4000000000013 0  -0.1 0.3500000000011588 0  -0.1 0.3000000000010178 0  -0.1 0.2500000000008986 0  -0.1 0.2000000000007579 0  -0.1 0.1500000000006174 0  -0.1 0.1000000000005272 0  -0.1 0.05000000000040083 0  -0.1 2.671196597248127e-13 0  -0.1 -0.0499999999998666 0  -0.0500000000000906 -0.1 0  -1.730560139634463e-13 -0.1 0  0.04999999999975802 -0.1 0  0.09999999999961506 -0.1 0  0.1499999999994613 -0.1 0  0.199999999999302 -0.1 0  0.2499999999991446 -0.1 0  0.2999999999990088 -0.1 0  0.3499999999988296 -0.1 0  0.3999999999986936 -0.1 0  0.4499999999985143 -0.1 0  0.4999999999984002 -0.1 0  0.5499999999985247 -0.1 0  0.5999999999986493 -0.1 0  0.6499999999987955 -0.1 0  0.6999999999989417 -0.1 0  0.7499999999990659 -0.1 0  0.7999999999992116 -0.1 0  0.8499999999993573 -0.1 0  0.8999999999994526 -0.1 0  0.949999999999584 -0.1 0  0.9999999999997226 -0.1 0  1.049999999999861 -0.1 0  1.1 -0.0500000000000906 0  1.1 -1.730560139634463e-13 0  1.1 0.04999999999975802 0  1.1 0.09999999999961506 0  1.1 0.1499999999994613 0  1.1 0.199999999999302 0  1.1 0.2499999999991446 0  1.1 0.2999999999990088 0  1.1 0.3499999999988296 0  1.1 0.3999999999986936 0  1.1 0.4499999999985143 0  1.1 0.4999999999984002 0  1.1 0.5499999999985247 0  1.1 0.5999999999986493 0  1.1 0.6499999999987955 0  1.1 0.6999999999989417 0  1.1 0.7499999999990659 0  1.1 0.7999999999992116 0  1.1 0.8499999999993573 0  1.1 0.8999999999994526 0  1.1 0.949999999999584 0  1.1 0.9999999999997226 0  1.1 1.049999999999861 0  1.05000000000004 1.1 0  1.000000000000079 1.1 0  0.9500000000001624 1.1 0  0.9000000000003032 1.1 0  0.850000000000444 1.1 0  0.8000000000005848 1.1 0  0.7500000000007256 1.1 0  0.7000000000008665 1.1 0  0.6500000000010508 1.1 0  0.6000000000012352 1.1 0  0.5500000000014196 1.1 0  0.500000000001539 1.1 0  0.4500000000014195 1.1 0  0.4000000000013 1.1 0  0.3500000000011588 1.1 0  0.3000000000010178 1.1 0  0.2500000000008986 1.1 0  0.2000000000007579 1.1 0  0.1500000000006174 1.1 0  0.1000000000005272 1.1 0  0.05000000000040083 1.1 0  2.671196597248127e-13 1.1 0  -0.0499999999998666 1.1 0  0.2974294489325923 0.6463504014356989 0  0.2869005125971663 0.6301357345490235 0  0.2771978382886598 0.611628759431546 0  0.2688405424869937 0.5912123973238815 0  0.2621946207300166 0.569495320696249 0  0.257392850975587 0.5468162587609079 0  0.2545075756669327 0.5235359177494308 0  0.2535941215026969 0.5000375661939701 0  0.254635898365131 0.4764730929689682 0  0.2576399314979022 0.4531983308958026 0  0.2625727145171063 0.4305741204658473 0  0.2693424781197908 0.4089309080300247 0  0.2778008148289687 0.3886220271845726 0  0.2875897733377693 0.3701626227690356 0  0.2981468143300683 0.3540194952628118 0  0.3181328294160596 0.3303343973487962 0  0.3319645288122155 0.317519181759029 0  0.3482721131385489 0.3049673631953951 0  0.3665749252160745 0.2934036181806849 0  0.3865201421285072 0.2832236559626555 0  0.4077723116389754 0.2746747186862375 0  0.4300318725282958 0.2679001836973779 0  0.4530191939762909 0.2629699994191146 0  0.476510367371672 0.2599408775033142 0  0.5002341618945785 0.2588466376699424 0  0.5239911436425849 0.2596947640553092 0  0.5475428613160461 0.2624798044865689 0  0.5706362352136952 0.2671801787422783 0  0.5930070118890973 0.2737635247499867 0  0.6143984617729318 0.2821491655186729 0  0.6345176514899388 0.2922117158657495 0  0.6530119767189299 0.3037341276077605 0  0.6695192269065859 0.3163218669056141 0  0.6834767500835504 0.3291830909391248 0  0.7038164741776454 0.3532575181038732 0  0.7143359563006929 0.3694261495825225 0  0.7241441733671644 0.3880812534161868 0  0.7325786626853623 0.4086215742563195 0  0.7392782460546756 0.4304371968730348 0  0.7441160365059898 0.4531541263773697 0  0.7470414588247948 0.4764632186927416 0  0.748027659910556 0.5000730899092688 0  0.7470608896969838 0.5236970461484576 0  0.7441473624712072 0.5470819060704958 0  0.7393261354527563 0.5698041333326738 0  0.732624329138008 0.5916487879387944 0  0.7242261171629656 0.612150294943558 0  0.7144225761467429 0.6308279560872326 0  0.7038972864298502 0.6470167241227088 0  0.6835082553234133 0.6711522490751347 0  0.66950725848756 0.6840550450663342 0  0.6530251849018235 0.6966436830709334 0  0.6345542678019718 0.7081675170489395 0  0.6144633259095306 0.7182384361113756 0  0.5930812804568526 0.7266422086649718 0  0.5706889193382395 0.7332643634681359 0  0.547592709966888 0.7379976046691613 0  0.5240342443495825 0.7408128471689354 0  0.5002580960416708 0.7416930807458104 0  0.4765091101194599 0.7406349249098603 0  0.4530151022047372 0.7376473169253733 0  0.429986811890555 0.7327589262197456 0  0.4076633186107618 0.7260170649209486 0  0.3863611674067546 0.7175147529812558 0  0.3663149238952227 0.7073389986604458 0  0.3478851042965428 0.6957391256085315 0  0.3314742902705856 0.6831366950948156 0  0.3175535463137374 0.670248026652319 0  0.3780354862671389 0.3143400898089412 0  0.2841836889279982 0.4417914715051066 0  0.3778605788108092 0.6862680078075116 0  0.283896060100891 0.5583396509166673 0  0.7145509678047303 0.5806674506232157 0  0.602331557320559 0.6959581454568442 0  0.6221733974497442 0.3126305273809984 0  0.71908025592947 0.4409375669276488 0  0.7231062590118681 0.5113157363044201 0  0.5574856085820383 0.2922403103571987 0  0.4435691006966889 0.295117785794543 0  0.4421961302121947 0.7057311159505462 0  0.535197293319878 0.7100899617860016 0  0.2791260469684549 0.4882725107447523 0  0.2934633805082589 0.3979618220061095 0  0.4888884319339215 0.2926973667736957 0  0.298220342995927 0.6008681913540523 0  0.7023838564654598 0.3955868654192111 0  0.4886777226456483 0.7115765418175485 0  0.6428343214008557 0.6784324502519281 0  0.3400255106527166 0.3349486919949624 0  0.6616210838811928 0.3354548052346111 0  0.3401111247552772 0.667986394635783 0  0.6985193246112057 0.6243790091035751 0  0.3090712428012019 0.3592860944629659 0  0.3101913806798594 0.640269416164045 0  0.6777888827066575 0.6594266346557297 0  0.693099395661914 0.3582034790745529 0  0.3583012777579124 0.6773517952471296 0  0.3683986533320076 0.6586304479490673 0  0.3888071795391551 0.6649334099066037 0  0.3778951723937402 0.6381095791025421 0  0.3998595846557739 0.6428259057095962 0  0.3873003099485423 0.6140918383529104 0  0.4142285781166764 0.6178820490950707 0  0.3985855022334488 0.5843254706728989 0  0.3611543334198563 0.6092093166854119 0  0.4319023602953575 0.5865509563006984 0  0.4122648187883399 0.5489063115316927 0  0.3730235874780023 0.5531155660896857 0  0.3894496111986999 0.5144492935988783 0  0.3518028519464552 0.5162118634524596 0  0.3649632650384617 0.4820389671494567 0  0.4044240305114428 0.4763635759643483 0  0.3838825851400787 0.4439603274992071 0  0.4193772437486402 0.4373444722968435 0  0.3998422509144581 0.4066358684341358 0  0.4320314279645245 0.3924386854620411 0  0.3667715212911788 0.4103734034972285 0  0.4085243262050018 0.3720427382905019 0  0.4407330048277593 0.6222967825630901 0  0.4661362469755165 0.5961735805347433 0  0.4842593351268267 0.6248666626736618 0  0.5026367573365516 0.5983945087110326 0  0.5201047723029405 0.6251056160416554 0  0.5382694319179389 0.5983651675668645 0  0.5553532902688194 0.6244393655830273 0  0.5732641355035708 0.597975256089013 0  0.5905805030315767 0.6254622976324792 0  0.6076122681294532 0.5899989557518555 0  0.59223810930
[...]
<PointData  Scalars="state"> 
<DataArray  type="Float64"  Name="state"  format="ascii">0.0000000000000000e+00  0.0000000000000000e+00  0.0000000000000000e+00  0.0000000000000000e+00  0.0000000000000000e+00  0.0000000000000000e+00  0.0000000000000000e+00  0.0000000000000000e+00  -3.0946164371323609e-02  -3.0912096708538183e-02  -3.1083555179931912e-02  -3.1106738665371912e-02  -6.8948672475117774e-03  0.0000000000000000e+00  0.0000000000000000e+00  0.0000000000000000e+00  0.0000000000000000e+00  0.0000000000000000e+00  0.0000000000000000e+00  0.0000000000000000e+00  0.0000000000000000e+00  0.0000000000000000e+00  0.0000000000000000e+00  0.0000000000000000e+00  0.0000000000000000e+00  0.0000000000000000e+00  0.0000000000000000e+00  0.0000000000000000e+00  0.0000000000000000e+00  0.0000000000000000e+00  0.0000000000000000e+00  0.0000000000000000e+00  0.0000000000000000e+00  0.0000000000000000e+00  0.0000000000000000e+00  0.0000000000000000e+00  0.0000000000000000e+00  0.0000000000000000e+00  0.0000000000000000e+00  0.0000000000000000e+00  0.0000000000000000e+00  0.0000000000000000e+00  0.0000000000000000e+00  0.0000000000000000e+00  0.0000000000000000e+00  0.0000000000000000e+00  0.0000000000000000e+00  0.0000000000000000e+00  0.0000000000000000e+00  0.0000000000000000e+00  0.0000000000000000e+00  0.0000000000000000e+00  0.0000000000000000e+00  0.0000000000000000e+00  0.0000000000000000e+00  0.0000000000000000e+00  0.0000000000000000e+00  0.0000000000000000e+00  0.0000000000000000e+00  0.0000000000000000e+00  0.0000000000000000e+00  0.0000000000000000e+00  0.0000000000000000e+00  0.0000000000000000e+00  0.0000000000000000e+00  0.0000000000000000e+00  0.0000000000000000e+00  0.0000000000000000e+00  0.0000000000000000e+00  0.0000000000000000e+00  0.0000000000000000e+00  0.0000000000000000e+00  0.0000000000000000e+00  0.0000000000000000e+00  0.0000000000000000e+00  0.0000000000000000e+00  0.0000000000000000e+00  0.0000000000000000e+00  0.0000000000000000e+00  0.0000000000000000e+00  0.0000000000000000e+00  0.0000000000000000e+00  0.0000000000000000e+00  0.0000000000000000e+00  0.0000000000000000e+00  0.0000000000000000e+00  0.0000000000000000e+00  0.0000000000000000e+00  0.0000000000000000e+00  0.0000000000000000e+00  0.0000000000000000e+00  0.0000000000000000e+00  0.0000000000000000e+00  0.0000000000000000e+00  0.0000000000000000e+00  0.0000000000000000e+00  0.0000000000000000e+00  0.0000000000000000e+00  0.0000000000000000e+00  0.0000000000000000e+00  0.0000000000000000e+00  0.0000000000000000e+00  0.0000000000000000e+00  0.0000000000000000e+00  0.0000000000000000e+00  0.0000000000000000e+00  0.0000000000000000e+00  0.0000000000000000e+00  0.0000000000000000e+00  0.0000000000000000e+00  0.0000000000000000e+00  0.0000000000000000e+00  0.0000000000000000e+00  0.0000000000000000e+00  0.0000000000000000e+00  0.0000000000000000e+00  0.0000000000000000e+00  0.0000000000000000e+00  0.0000000000000000e+00  0.0000000000000000e+00  0.0000000000000000e+00  0.0000000000000000e+00  0.0000000000000000e+00  0.0000000000000000e+00  0.0000000000000000e+00  0.0000000000000000e+00  0.0000000000000000e+00  0.0000000000000000e+00  0.0000000000000000e+00  0.0000000000000000e+00  0.0000000000000000e+00  0.0000000000000000e+00  0.0000000000000000e+00  0.0000000000000000e+00  0.0000000000000000e+00  0.0000000000000000e+00  0.0000000000000000e+00  0.0000000000000000e+00  0.0000000000000000e+00  0.0000000000000000e+00  0.0000000000000000e+00  0.0000000000000000e+00  0.0000000000000000e+00  0.0000000000000000e+00  0.0000000000000000e+00  0.0000000000000000e+00  0.0000000000000000e+00  0.0000000000000000e+00  0.0000000000000000e+00  0.0000000000000000e+00  0.0000000000000000e+00  0.0000000000000000e+00  0.0000000000000000e+00  0.0000000000000000e+00  0.0000000000000000e+00  0.0000000000000000e+00  0.0000000000000000e+00  0.0000000000000000e+00  0.0000000000000000e+00  0.0000000000000000e+00  0.0000000000000000e+00  0.0000000000000000e+00  0.0000000000000000e+00  0.0000000000000000e+00  0.0000000000000000e+00  0.0000000000000000e+00  0.0000000000000000e+00  0.0000000000000000e+00  0.0000000000000000e+00  0.0000000000000000e+00  0.0000000000000000e+00  0.0000000000000000e+00  0.0000000000000000e+00  0.0000000000000000e+00  0.0000000000000000e+00  0.0000000000000000e+00  0.0000000000000000e+00  0.0000000000000000e+00  0.0000000000000000e+00  0.0000000000000000e+00  0.0000000000000000e+00  -3.0162395502275004e-02  -2.9740930112750842e-02  -2.9242330882158548e-02  -2.8721888375903351e-02  -2.8281169138652567e-02  -2.7940112125406140e-02  -2.7679033836582882e-02  -2.7709425548663166e-02  -2.7738837413360206e-02  -2.7991069187488320e-02  -2.8343698676418512e-02  -2.8749573193329301e-02  -2.9146115696582452e-02  -2.9605568638969348e-02  -3.0041815158521411e-02  -3.0442081977045305e-02  -3.0142459406353347e-02  -2.9857935649892510e-02  -2.9563695441988409e-02  -2.9272780051683590e-02  -2.8891359241156083e-02  -2.8526017790278684e-02  -2.8291549761502988e-02  -2.8079390887351195e-02  -2.8023968251373391e-02  -2.8086242279193398e-02  -2.8278926164129248e-02  -2.8575506333002640e-02  -2.8913843006198044e-02  -2.9366103863894346e-02  -2.9757727935080715e-02  -3.0041846774956131e-02  -3.0324047155622254e-02  -3.0605094517339490e-02  -3.0379457027605881e-02  -2.9843317747861389e-02  -2.9342314933856410e-02  -2.8798678440511875e-02  -2.8351850686311471e-02  -2.7999924997267056e-02  -2.7798233597341626e-02  -2.7702704556739389e-02  -2.7785008843076713e-02  -2.8064902778871539e-02  -2.8413492930311594e-02  -2.8819588548669218e-02  -2.9389654574706190e-02  -2.9902592450791656e-02  -3.0435746650020960e-02  -3.0592740557393236e-02  -3.0298515859454814e-02  -3.0061112268441954e-02  -2.9752596681889988e-02  -2.9350695683241900e-02  -2.8875642147727063e-02  -2.8538447221059984e-02  -2.8200645161202926e-02  -2.7988129904089162e-02  -2.7950702071667301e-02  -2.8040743434045418e-02  -2.8220703833461931e-02  -2.8419168072852330e-02  -2.8799324955680716e-02  -2.9204350175042582e-02  -2.9528090153538161e-02  -2.9867327656026111e-02  -3.0168553691880953e-02  -3.0458396525913201e-02  -2.4163008885844387e-02  -2.3272965288595987e-02  -2.4145382780785738e-02  -2.3268913248865940e-02  -2.4238019689172215e-02  -2.3749983693027818e-02  -2.4302478662038180e-02  -2.3535871936802504e-02  -2.2805751898122516e-02  -2.2852147065768231e-02  -2.2445628112246159e-02  -2.2445841481858499e-02  -2.2261012876139082e-02  -2.2717110110583000e-02  -2.4853067376935503e-02  -2.1519230516623671e-02  -2.3928696284138455e-02  -2.4214847196542079e-02  -2.2059107414111264e-02  -2.5092328244163582e-02  -2.5547554879195220e-02  -2.5445899247471863e-02  -2.5832648925917776e-02  -2.5700976075088242e-02  -2.6811843274800636e-02  -2.6317395465307373e-02  -2.7097849970363359e-02  -2.7018718777170058e-02  -2.4916028275156512e-02  -2.1688921619870152e-02  -2.0672634764803757e-02  -1.8918010063678801e-02  -1.7732263199848140e-02  -1.6166652887057698e-02  -1.4684795159280289e-02  -1.3259455680486589e-02  -1.7876364897887093e-02  -1.1425791133076567e-02  -1.0517930115491335e-02  -1.3580757915126439e-02  -1.1226107166854246e-02  -1.4570483970195093e-02  -1.3384917307857840e-02  -1.0327158742283290e-02  -1.2799809325632135e-02  -1.0720232585794619e-02  -1.3813054544525171e-02  -1.2993640340693873e-02  -1.6157521929481746e-02  -1.6075756938908285e-02  -1.3735445845090460e-02  -1.0851050434230914e-02  -1.2886503435988277e-02  -1.0646084780603624e-02  -1.3004578726190166e-02  -1.1158228749703902e-02  -1.3829439048203062e-02  -1.2439849090111945e-02  -1.5533354486409860e-02  -1.3931128538440354e-02  -1.1038959926768930e-02  -1.3569195834059706e-02  -1.1146539577927916e-02  -1.6433459440887862e-02  -1.6755052626257736e-02  -1.7394873385651773e-02  -1.6732038593041409e-02  -1.6649328353035512e-02  -1.7917821143227472e-02  -1.5420292046321853e-02  -1.2587216055614497e-02  -1.9811013241971018e-02  -1.8154242292117869e-02  -1.6261847355896291e-02  -1.7012053676090034e-02  -1.5750935638653232e-02  -1.2151821935619350e-02  -1.6068520654877499e-02  -1.3052955204161049e-02  -9.7277156367730142e-03  -1.1665754404373950e-02  -1.4504592841179817e-02  -1.4019272166105655e-02  -1.0458504862340364e-02  -1.3606743245875408e-02  -1.6364646046576645e-02  -1.6467504724307844e-02  -1.4685184729425449e-02  -1.8774585381325429e-02  -1.9352091912127983e-02  -2.1209390996798125e-02  -2.1259832947500879e-02  -9.0231742316927536e-03  -1.9451119091143679e-02  -1.9273699964453314e-02  -1.9937934064779669e-02  -1.8121672427051226e-02  -2.1558384830088009e-02  -2.1856605134992796e-02  -2.0325019182951102e-02  -1.6389103380955457e-02  -1.9044886440012870e-02  -2.0819057748975991e-02  -1.8144052097844379e-02  -1.6102942566828593e-02  -1.8493998413628081e-02  -1.9086114567819657e-02  -1.6454213046137024e-02  -1.8757892897809374e-02  -2.0877155129689035e-02  -2.1380464574167809e-02  -2.0151575667522282e-02  -2.0094129123764692e-02  -1.8990634574970553e-02  -2.1308120879841998e-02  -1.6785807067128993e-02  -8.4226057522125627e-03  -2.1090283519881951e-02  -8.4760761194845984e-03  -1.4336092633664081e-02  -1.7559456880107255e-02  -1.4880029443117426e-02  -1.7705539906030295e-02  -1.9990110568632265e-02  -2.0530390926156692e-02  -1.8807788124837351e-02  -1.6907940243028174e-02  -1.8592825368109456e-02  -1.9268369613713733e-02  -1.0099052359760913e-02  -2.3080882656343043e-02  -2.3469030069358590e-02  -1.7278217092040891e-02  -1.9719651333140794e-02  -1.9201773718254912e-02  -1.7520699275278592e-02  -1.8474526944071399e-02  -2.0904814069759445e-02  -1.9167775797519011e-02  -2.0834535538054165e-02  -2.1283557343484034e-02  -2.2637588174707176e-02  -2.4186255773971193e-02  -2.4786845910727169e-02  -1.9945083970695252e-02  -2.2076784422278110e-02  -2.2283513472430069e-02  -2.2561087253212101e-02  -2.4510854616095257e-02  -2.5571868512819347e-02  -2.2866449675450085e-02  -1.9272940161792824e-02  -1.6869798180702892e-02  -2.4188768752242192e-02  -2.3452605247663901e-02  -2.2371302401199951e-02  -2.5139660261638896e-02  -2.2122259343055051e-02  -2.2063216202206748e-02  -2.3692380280080420e-02  -2.5556088403109571e-02  -2.2790479343461116e-02  -2.2263228500592810e-02  -2.3854728511368092e-02  -2.1022402523321396e-02  -2.3137348800274040e-02  -2.0388187938534291e-02  -2.2725370078713291e-02  -2.4541805667442559e-02  -2.5950215530097704e-02  -2.4485328713999444e-02  -2.1369845313081410e-02  -1.8105195287577355e-02  -2.3014376319096957e-02  -2.3675181748579785e-02  -2.1596860857032461e-02  -2.6938681769421442e-02  -2.6948099405289888e-02  -2.7035763471426066e-02  -2.7057965044505156e-02  -2.3180860699137378e-02  -9.6813510314461785e-03  -7.9498850442370067e-03  -1.9792858555084836e-02  -2.3772494057079357e-02  -2.4167215983766508e-02  -2.2951355322136633e-02  -2.5833506203549347e-02  -2.2594750765200153e-02  -2.2104635484039344e-02  -1.8584528941010713e-02  -1.7577034244749785e-02  -2.2304501927419815e-02  -1.7266383960329108e-02  -8.7927624413953655e-03  -8.8647764806754573e-03  -1.2211296598323514e-02  -2.0248162759922021e-02  -2.2067801167664342e-02  -1.8954184665097209e-02  -2.0145938573696967e-02  -1.8965974705366952e-02  -2.3278163597369225e-02  -2.3111303959431128e-02  -9.2287805739650775e-03  -2.3420686178683110e-02  -1.9401115950020972e-02  -2.0344239604266897e-02  -1.6198631739419298e-02  -2.2059595129680195e-02  -1.6420935816948003e-02  -1.2178643571743598e-02  -2.3531891628675559e-02  -7.6245761391207376e-03  -1.5442094982391805e-02  -2.5017491419176703e-02  -1.6826638468377626e-02  -1.9274434685694723e-02  -1.9809086632142588e-02  -9.4987501953387801e-03  -2.3430803632835014e-02  -2.1084675088421857e-02  -1.9121145586285890e-02  -7.3712273897421372e-03  -2.0620533572452165e-02  -1.9264116171471772e-02  -7.9330025118112182e-03  -1.5986875830607563e-02  -1.8953085592722008e-02  -7.4269112849400859e-03  -1.6263668260142614e-02  -2.1194094158288868e-02  -2.1668261335519360e-02  -1.8302991624904379e-02  -1.5322567030066422e-02  -1.9374495740996891e-02  -2.3927830664648549e-02  -1.6685124269953586e-02  -2.8198642307938566e-02  -2.8290254497255106e-02  -2.8180849246645875e-02  -2.8359913866925556e-02  -2.1161626167188793e-02  -2.3391272875424071e-02  -2.1157475939945564e-02  -2.2582901521014987e-02  -1.9751299517608813e-02  -1.5230095676005390e-02  -2.2834884582151948e-02  -2.1808741678395853e-02  -1.8339363704082279e-02  -1.4310796021324516e-02  -1.5624763420358343e-02  -1.3946711177831856e-02  -2.1734031018475881e-02  -1.4271659669924967e-02  -1.9499900872789837e-02  -1.3840698427157017e-02  -7.5484228652067378e-03  -1.8949743983843945e-02  -1.6120108229259716e-02  -1.7813035751457023e-02  -1.9288043786362917e-02  -1.5362892590544656e-02  -1.4417114571857096e-02  -8.6827576928558709e-03  -2.4182587006608303e-02  -3.1732211929261379e-02  -3.2103328261430593e-02  -3.4020115438395192e-02  -3.6495766367065821e-02  -3.3997663384044183e-02  -3.7095641816511614e-02  -3.2049630077796785e-02  -3.3695676321269616e-02  -3.2005810756430116e-02  -3.3766747625556759e-02  -3.6620040379964275e-02  -3.6397893464403891e-02  -1.6957958448288526e-02  -1.5090821411540837e-02  -1.8231918858965333e-02  -1.5721872858728881e-02  -3.2382575764960966e-02  -3.5877763019170873e-02  -3.6025277754165662e-02  -3.2391583627956425e-02  -4.0817587882322072e-02  -4.6117177215490988e-02  -3.2968112927738526e-02  -3.2857946275343351e-02  -3.7689371310885608e-02  -4.7524170577729785e-02  -4.9962758266375355e-02  -4.9676543248767802e-02  -5.1447959109297205e-02  -5.1566029413064395e-02  -1.7417779566035636e-02  -1.6914322625351887e-02  -1.7425187925474182e-02  -1.6908164385571009e-02  -1.7428154231442214e-02  -1.6965860533833556e-02  -1.8019271540018960e-02  -5.1355903340967339e-02  -5.1651254398797176e-02  -4.9770634320242722e-02  -4.8107682366114249e-02  -1.9150808240824574e-02  -1.8473721861048686e-02  -1.7709425283009183e-02  -1.7270712716059212e-02  -1.8732036583217749e-02  -1.7611001886821156e-02  -2.0312793589572060e-02  -1.5936165326680310e-02  -4.8197955460089523e-02  -4.7126012349917951e-02  -1.7881678781017905e-02  -1.6057503611736731e-02  -1.7909590677284426e-02  -4.1110836021222820e-02  -4.5894943705334257e-02  -4.8247041751639387e-02  -5.0359775394321071e-02  -5.1255748483724918e-02  -5.1514813474002427e-02  -5.0850840848699348e-02  -5.1266540705431823e-02  -5.1249455645662106e-02  -4.9755796936251089e-02  -4.1023939693211095e-02  -4.6128846142345734e-02  -4.8269250645888329e-02  -5.0387643120619656e-02  -4.9155201315708115e-02  -5.1312518851768685e-02  -5.1592361512072929e-02  -5.1485361261885867e-02  -5.1375783541255007e-02  -5.0107699300186236e-02  -3.4244855024111891e-02  -4.0888105131079579e-02  -4.6187143186881011e-02  -4.7627652092318611e-02  -5.0146839895556648e-02  -4.9835248214880272e-02  -5.1629720700254976e-02  -5.1756654592139260e-02  -5.1612381239382443e-02  -5.1705698902887905e-02  -3.1727480105940432e-02  -3.2139125654619682e-02  -3.3638097686508307e-02  -3.3683856800162441e-02  -5.0863487181605702e-02  -4.9922863846176543e-02  -4.9858588868402477e-02  -4.9782288402280564e-02  -4.9662140174696855e-02  -4.9995029705876770e-02  -1.8086766321073523e-02  -4.9410511775630231e-02  -5.1239222331354348e-02  -4.9482744077876235e-02  -4.9127989577580855e-02  -5.0643400805889756e-02  -5.0407983659554234e-02  -3.4233522900674440e-02  -4.6062029732235714e-02  -4.6038333968799097e-02  -1.4828686578454202e-02  -1.3824169355772036e-02  -1.4840204385670325e-02  -4.5273947415993374e-02  -4.6105144842494165e-02  -4.4317281970093388e-02  -4.3627747106947189e-02  -4.7836654663018466e-02  -4.9478694877193308e-02  -4.7399870964900490e-02  -4.8950413049425899e-02  -4.5995864141949915e-02  -4.8848547533561881e-02  -4.5277876468451259e-02  -4.7670012030821364e-02  -4.4126630660388612e-02  -4.5770988262419529e-02  -4.6008734749067158e-02  -4.8695351260927881e-02  -4.5178597491932142e-02  -4.7297318971401756e-02  -4.3979596989256860e-02  -4.5789586479179974e-02  -4.2749859827972962e-02  -4.4523561547903559e-02  -4.1792091491807418e-02  -4.3656519943986026e-02  -4.1124896527991207e-02  -4.3261580479726620e-02  -4.0832508126709278e-02  -4.3406327482190962e-02  -4.2724650239104794e-02  -4.4399706911322355e-02  -4.1665282472852415e-02  -4.3487281516445674e-02  -4.0950792994337376e-02  -4.3071469036059552e-02  -4.0608211281569322e-02  -4.3222924662988736e-02  -4.5564021682555265e-02  -4.5392011919936609e-02  -4.9096463163794950e-02  -4.8915295990338475e-02  -4.5253565328327833e-02  -4.4814736915901862e-02  -4.1239267171129218e-02  -4.4104766982414507e-02  -4.1899832188979878e-02  -4.5141444393141612e-02  -4.2657066156731482e-02  -4.0990123099003663e-02  -4.3876867755753231e-02  -4.1560943318917735e-02  -4.4857749062964102e-02  -4.2260722873758413e-02  -5.0009941119777558e-02  -4.6719494959192927e-02  -4.5941812235756392e-02  -4.4373630248553425e-02  -4.5725634130569778e-02  -4.4517240486094359e-02  -4.5901606684189737e-02  -4.2618287217445101e-02  -3.9559483073941880e-02  -4.2863851280042699e-02  -3.9602764572186470e-02  -4.3316819252245252e-02  -3.5761686005419117e-02  -4.3457888779759063e-02  -4.4666911766930509e-02  -4.0955082420237883e-02  -3.9687722994449982e-02  -3.5575217601790853e-02  -4.4501640259613999e-02  -4.0012821206525863e-02  -4.5920788611000123e-02  -3.9073131451400303e-02  -4.6030488031880805e-02  -3.7885727043580279e-02  -3.8010547490875790e-02  -3.7139939787111241e-02  -4.3179355468574494e-02  -3.8495178417775104e-02  -4.2883218705156587e-02  -3.0708780636356816e-02  -5.0010863416993706e-02  -1.1706950640261988e-02  -4.5854267956966628e-02  -5.0042338781245137e-02  -3.7693233097442394e-02  -3.6931297949878060e-02  -4.1619555450714794e-02  -3.7675452806015433e-02  -4.5587867085384058e-02  -4.5551604919465923e-02  -4.4808716269861465e-02  -4.8250438083343852e-02  -4.6433751874366942e-02  -4.7348209886143591e-02  -4.5862370144633492e-02  -4.4016363986346639e-02  -4.2969960126438583e-02  -4.5966871605174701e-02  -4.4278006788294855e-02  -4.1927928975519120e-02  -4.2672679002924541e-02  -4.0968604550107583e-02  -4.1724549262228648e-02  -4.0558346181203367e-02  -4.1208569651669920e-02  -4.0578017073408440e-02  -4.1098619211324329e-02  -3.7794964294527292e-02  -4.2483443340604478e-02  -4.3313731702098707e-02  -4.2195119395131722e-02  -3.1050786565167274e-02  -4.1026798123375161e-02  -3.7698969520666530e-02  -3.8519484011150247e-02  -3.6408407347378352e-02  -1.0677561675928100e-02  -1.2452209191221067e-02  -1.1785976184543656e-02  -4.5045978475585058e-02  -3.8745656077463622e-02  -4.8835504069763731e-02  -4.3702801030971780e-02  -4.6816697040136482e-02  -3.2621246901377660e-02  -3.3302779669506642e-02  -3.4221731492021942e-02  -3.9853099953892031e-02  -4.3354241780866991e-02  -4.6357948174569917e-02  -4.4653095408292105e-02  -3.9911060977005509e-02  -4.2420046308379859e-02  -4.3031396722889484e-02  -4.2271963394796219e-02  -4.0424892391471894e-02  -4.1525671260812073e-02  -3.8054740532511538e-02  -4.0630051762183129e-02  -4.1037986976600369e-02  -4.1495640706041906e-02  -3.9635344370752196e-02  -4.2058925814289348e-02  -3.8496562130045771e-02  -4.2226590392700138e-02  -4.2713658415673157e-02  -4.4157349815050970e-02  -4.2161995719686499e-02  -4.5637139701197801e-02  -4.1486087996385874e-02  -4.6532975319915820e-02  -3.9863912605184043e-02  -4.4962540204323199e-02  -4.2324796371043090e-02  -4.4229704453277077e-02  -4.1459030153746516e-02  -4.8840677893494347e-02  -4.7356968574861040e-02  -3.7155373023604311e-02  -3.4452234197421466e-02  -4.2350711290148335e-02  -4.1494126411996714e-02  -4.7480900575041993e-02  -4.0152493169967822e-02  -4.7348421577791427e-02  -3.6279668674250490e-02  -3.8536570811224954e-02  -4.1535569625830528e-02  -4.7074182700428832e-02  -3.5373648748495377e-02  -4.2053467923458689e-02  -3.9443025900048251e-02  -3.6358038855854438e-02  -3.6562663199525711e-02  -3.8525517242627282e-02  -4.2341794911660381e-02  -3.7560482793224707e-02  -4.0770616268661707e-02  -3.97631232329