<?xml version="1.0"?>
<VTKFile type="UnstructuredGrid"  version="0.1"  >
<UnstructuredGrid>
<Piece  NumberOfPoints="1297" NumberOfCells="2496">
<Points>
<DataArray  type="Float64"  NumberOfComponents="3"  format="ascii">0 0 0  0 1 0  1 1 0  1 0 0  1.1 -0.1 0  -0.1 -0.1 0  1.1 1.1 0  -0.1 1.1 0  0.3075403190362052 0.6584868756379211 0  0.3081687371795085 0.3420165988834284 0  0.6936019274585934 0.3410113347135307 0  0.6936514797131486 0.659312286910178 0  0.5005496888515907 0.5001827185798428 0  0 0.9499999999997918 0  0 0.8999999999995836 0  0 0.8499999999996529 0  0 0.7999999999999998 0  0 0.7500000000003466 0  0 0.7000000000006934 0  0 0.6500000000010401 0  0 0.6000000000013869 0  0 0.5500000000017335 0  0 0.5000000000020587 0  0 0.4500000000018723 0  0 0.4000000000016644 0  0 0.3500000000014564 0  0 0.3000000000012483 0  0 0.2500000000010403 0  0 0.2000000000008322 0  0 0.1500000000006241 0  0 0.100000000000416 0  0 0.05000000000020799 0  0.04999999999989965 0 0  0.09999999999981467 0 0  0.1499999999997036 0 0  0.1999999999995579 0 0  0.2499999999994121 0 0  0.2999999999992664 0 0  0.3499999999991206 0 0  0.3999999999989749 0 0  0.4499999999988292 0 0  0.4999999999986943 0 0  0.5499999999988151 0 0  0.5999999999989468 0 0  0.6499999999990784 0 0  0.69999999999921 0 0  0.7499999999993417 0 0  0.7999999999994734 0 0  0.8499999999996051 0 0  0.8999999999997368 0 0  0.9499999999998684 0 0  1 0.04999999999989965 0  1 0.09999999999981467 0  1 0.1499999999997036 0  1 0.1999999999995579 0  1 0.2499999999994121 0  1 0.2999999999992664 0  1 0.3499999999991206 0  1 0.3999999999989749 0  1 0.4499999999988292 0  1 0.4999999999986943 0  1 0.5499999999988151 0  1 0.5999999999989468 0  1 0.6499999999990784 0  1 0.69999999999921 0  1 0.7499999999993417 0  1 0.7999999999994734 0  1 0.8499999999996051 0  1 0.8999999999997368 0  1 0.9499999999998684 0  0.9499999999997918 1 0  0.8999999999995836 1 0  0.8499999999996529 1 0  0.7999999999999998 1 0  0.7500000000003466 1 0  0.7000000000006934 1 0  0.6500000000010401 1 0  0.6000000000013869 1 0  0.5500000000017335 1 0  0.5000000000020587 1 0  0.4500000000018723 1 0  0.4000000000016644 1 0  0.3500000000014564 1 0  0.3000000000012483 1 0  0.2500000000010403 1 0  0.2000000000008322 1 0  0.1500000000006241 1 0  0.100000000000416 1 0  0.05000000000020799 1 0  -0.1 1.05000000000004 0  -0.1 1.000000000000079 0  -0.1 0.9500000000001624 0  -0.1 0.9000000000003032 0  -0.1 0.850000000000444 0  -0.1 0.8000000000005848 0  -0.1 0.7500000000007256 0  -0.1 0.7000000000008665 0  -0.1 0.6500000000010508 0  -0.1 0.6000000000012352 0  -0.1 0.5500000000014196 0  -0.1 0.500000000001539 0  -0.1 0.4500000000014195 0  -0.1 0.4000000000013 0  -0.1 0.3500000000011588 0  -0.1 0.3000000000010178 0  -0.1 0.2500000000008986 0  -0.1 0.2000000000007579 0  -0.1 0.1500000000006174 0  -0.1 0.1000000000005272 0  -0.1 0.05000000000040083 0  -0.1 2.671196597248127e-13 0  -0.1 -0.0499999999998666 0  -0.0500000000000906 -0.1 0  -1.730560139634463e-13 -0.1 0  0.04999999999975802 -0.1 0  0.09999999999961506 -0.1 0  0.1499999999994613 -0.1 0  0.199999999999302 -0.1 0  0.2499999999991446 -0.1 0  0.2999999999990088 -0.1 0  0.3499999999988296 -0.1 0  0.3999999999986936 -0.1 0  0.4499999999985143 -0.1 0  0.4999999999984002 -0.1 0  0.5499999999985247 -0.1 0  0.5999999999986493 -0.1 0  0.6499999999987955 -0.1 0  0.6999999999989417 -0.1 0  0.7499999999990659 -0.1 0  0.7999999999992116 -0.1 0  0.8499999999993573 -0.1 0  0.8999999999994526 -0.1 0  0.949999999999584 -0.1 0  0.9999999999997226 -0.1 0  1.049999999999861 -0.1 0  1.1 -0.0500000000000906 0  1.1 -1.730560139634463e-13 0  1.1 0.04999999999975802 0  1.1 0.09999999999961506 0  1.1 0.1499999999994613 0  1.1 0.199999999999302 0  1.1 0.2499999999991446 0  1.1 0.2999999999990088 0  1.1 0.3499999999988296 0  1.1 0.3999999999986936 0  1.1 0.4499999999985143 0  1.1 0.4999999999984002 0  1.1 0.5499999999985247 0  1.1 0.5999999999986493 0  1.1 0.6499999999987955 0  1.1 0.6999999999989417 0  1.1 0.7499999999990659 0  1.1 0.7999999999992116 0  1.1 0.8499999999993573 0  1.1 0.8999999999994526 0  1.1 0.949999999999584 0  1.1 0.9999999999997226 0  1.1 1.049999999999861 0  1.05000000000004 1.1 0  1.000000000000079 1.1 0  0.9500000000001624 1.1 0  0.9000000000003032 1.1 0  0.850000000000444 1.1 0  0.8000000000005848 1.1 0  0.7500000000007256 1.1 0  0.7000000000008665 1.1 0  0.6500000000010508 1.1 0  0.6000000000012352 1.1 0  0.5500000000014196 1.1 0  0.500000000001539 1.1 0  0.4500000000014195 1.1 0  0.4000000000013 1.1 0  0.3500000000011588 1.1 0  0.3000000000010178 1.1 0  0.2500000000008986 1.1 0  0.2000000000007579 1.1 0  0.1500000000006174 1.1 0  0.1000000000005272 1.1 0  0.05000000000040083 1.1 0  2.671196597248127e-13 1.1 0  -0.0499999999998666 1.1 0  0.2979590464879864 0.6461419319962373 0  0.2874044849527611 0.629958632060181 0  0.2776377073383917 0.6114971634696108 0  0.2691871372102308 0.5911272602626823 0  0.2624417007272501 0.5694492309008441 0  0.2575520998431245 0.5467948626532696 0  0.2546067478662392 0.5235267450728136 0  0.2536724196103586 0.5000361152551527 0  0.2547345862334474 0.4764755892362766 0  0.2577978726757975 0.4532124654610335 0  0.262817153625219 0.4306140037311044 0  0.2696848568022542 0.4090120874344095 0  0.2782325522355107 0.3887521281510542 0  0.2880833859235164 0.3703382174407833 0  0.2986661244534731 0.3542238601459103 0  0.3185870475346351 0.3305313802992789 0  0.3323416975075038 0.3176463186077045 0  0.3485538772570724 0.3049801094419166 0  0.3667596121165068 0.2932692343844959 0  0.3866192982346582 0.2829248627018907 0  0.4078071646527092 0.2742123420678867 0  0.4300296176814194 0.2672916490454206 0  0.4529998601612872 0.2622481650083678 0  0.4764925719739279 0.2591463929333853 0  0.5002262235596545 0.2580261638286812 0  0.5239942807002962 0.2588966361053642 0  0.547550224461127 0.2617510333092927 0  0.5706299781235777 0.2665620160075738 0  0.5929669844471595 0.2732896075041784 0  0.6142987157846268 0.2818389993975483 0  0.6343349231366562 0.2920687226812628 0  0.6527323892420912 0.303741483198039 0  0.6691440110618025 0.3164475724311936 0  0.6830244885702017 0.3293814013789712 0  0.7032972388679612 0.3534652979288264 0  0.713841708709619 0.3696029703910081 0  0.7237141941162952 0.3882123114572996 0  0.732241289212503 0.4087063284663707 0  0.7390392897698174 0.4304826045598824 0  0.7439629364986396 0.4531719101121977 0  0.7469468733930352 0.476465872143598 0  0.7479542961603297 0.5000687798360429 0  0.7469675736564505 0.5236865244021476 0  0.7439962624569815 0.5470611358141207 0  0.7390897431066807 0.5697561478314302 0  0.73229026840212 0.5915648979865671 0  0.7238004352965188 0.612020726812903 0  0.7139324593842293 0.6306539500911789 0  0.7033821343656195 0.6468128305239507 0  0.6830594194640193 0.6709590628114558 0  0.6691342598474519 0.6839351748832346 0  0.6527473087688008 0.6966400764036382 0  0.6343737721559985 0.7083131142122389 0  0.6143671363584198 0.718549621485846 0  0.5930459213215522 0.7271167660514081 0  0.5706883630897499 0.733883646160823 0  0.5476066321685844 0.7387287244893282 0  0.524044724762979 0.7416147154703931 0  0.5002570981482605 0.7425188758807716 0  0.4764980415409989 0.7414361534792993 0  0.4530033071433203 0.738377537597065 0  0.429990323937477 0.7333762338524831 0  0.4077024760376823 0.7264887500595528 0  0.3864642929579936 0.7178222325223463 0  0.3665028813814219 0.7074796945202768 0  0.3481702707471567 0.6957292419549316 0  0.3318569653881535 0.6830100895188422 0  0.3180162408312423 0.6700500638147057 0  0.3782188823033248 0.3141900977609588 0  0.2844114716877799 0.441823100850288 0  0.378048420217425 0.6864229652801506 0  0.28412497184441 0.5583037375443131 0  0.714265133186084 0.5806068664575678 0  0.6022180783795021 0.6962463563854092 0  0.6219935968606816 0.3124676045500888 0  0.7188574298981076 0.4409724757611834 0  0.722968197687435 0.511308846410107 0  0.557450519425172 0.2917272655134627 0  0.4435993505439044 0.2946228469004222 0  0.4422329077451623 0.7062288344152234 0  0.5351841667232073 0.7106653345883368 0  0.2792701349668097 0.4882748505975089 0  0.2938281960225029 0.3980560346061773 0  0.4888880797409763 0.2921139448587456 0  0.2985774846797218 0.6007796609218089 0  0.7020240625226558 0.3956809788795746 0  0.4886819648472131 0.7121883903544561 0  0.6425767482181042 0.6784713753126587 0  0.3403688353215971 0.3350187564969322 0  0.6612779405311778 0.335524979471752 0  0.3404565954048095 0.6679202301275637 0  0.6981056221089631 0.6242514807703171 0  0.3095223049318584 0.3594435013337008 0  0.3106422464560687 0.6401160929240191 0  0.6773789861703351 0.6592884913597326 0  0.6926465990025741 0.3583655475380445 0  0.3585667091270424 0.67738632080017 0  0.3686375881686493 0.658695400445346 0  0.3889848187040664 0.665089960352897 0  0.3781088713114339 0.6381866170789574 0  0.4000202556234 0.6429750091866514 0  0.3874854468707639 0.6141701451852896 0  0.4143622579635156 0.618019256388751 0  0.3987394357015663 0.5843925998679579 0  0.3613938945084226 0.6092262225609604 0  0.4320040125622517 0.5866604838591339 0  0.4123879567726116 0.5489513271556838 0  0.3731985243940291 0.553134907828559 0  0.3895926010708565 0.5144577913274709 0  0.3519788084276324 0.5162126962270922 0  0.365128980318099 0.482033396435824 0  0.4045509476038109 0.4763447001440215 0  0.3840434795716996 0.4439301353500355 0  0.4194916847722179 0.4372802506833792 0  0.399994163650606 0.4065576829306869 0  0.4321313321450164 0.3922940204190288 0  0.3669792316321733 0.4103492346302716 0  0.4086648634008574 0.371900309884463 0  0.4408211895059682 0.62248629575442 0  0.4661872263538918 0.5963285939013265 0  0.4842833423479204 0.6251022450192334 0  0.5026358918317124 0.5985645999340014 0  0.5200802528458902 0.6253413299556896 0  0.5382180960833742 0.5985233026740769 0  0.5552779001381977 0.6246413131930361 0  0.5731603876041386 0.5981002740684485 0  0.5904455767115671 0.6256063733553587 0  0.607454569259009 0.5900667381859441 0  0.592114002388213 0.55613390
[...]
<PointData  Scalars="state"> 
<DataArray  type="Float64"  Name="state"  format="ascii">0.0000000000000000e+00  0.0000000000000000e+00  0.0000000000000000e+00  0.0000000000000000e+00  0.0000000000000000e+00  0.0000000000000000e+00  0.0000000000000000e+00  0.0000000000000000e+00  -3.0887844039890908e-02  -3.0854361813203744e-02  -3.1024584562745480e-02  -3.1048132641221950e-02  -6.8934693998619380e-03  0.0000000000000000e+00  0.0000000000000000e+00  0.0000000000000000e+00  0.0000000000000000e+00  0.0000000000000000e+00  0.0000000000000000e+00  0.0000000000000000e+00  0.0000000000000000e+00  0.0000000000000000e+00  0.0000000000000000e+00  0.0000000000000000e+00  0.0000000000000000e+00  0.0000000000000000e+00  0.0000000000000000e+00  0.0000000000000000e+00  0.0000000000000000e+00  0.0000000000000000e+00  0.0000000000000000e+00  0.0000000000000000e+00  0.0000000000000000e+00  0.0000000000000000e+00  0.0000000000000000e+00  0.0000000000000000e+00  0.0000000000000000e+00  0.0000000000000000e+00  0.0000000000000000e+00  0.0000000000000000e+00  0.0000000000000000e+00  0.0000000000000000e+00  0.0000000000000000e+00  0.0000000000000000e+00  0.0000000000000000e+00  0.0000000000000000e+00  0.0000000000000000e+00  0.0000000000000000e+00  0.0000000000000000e+00  0.0000000000000000e+00  0.0000000000000000e+00  0.0000000000000000e+00  0.0000000000000000e+00  0.0000000000000000e+00  0.0000000000000000e+00  0.0000000000000000e+00  0.0000000000000000e+00  0.0000000000000000e+00  0.0000000000000000e+00  0.0000000000000000e+00  0.0000000000000000e+00  0.0000000000000000e+00  0.0000000000000000e+00  0.0000000000000000e+00  0.0000000000000000e+00  0.0000000000000000e+00  0.0000000000000000e+00  0.0000000000000000e+00  0.0000000000000000e+00  0.0000000000000000e+00  0.0000000000000000e+00  0.0000000000000000e+00  0.0000000000000000e+00  0.0000000000000000e+00  0.0000000000000000e+00  0.0000000000000000e+00  0.0000000000000000e+00  0.0000000000000000e+00  0.0000000000000000e+00  0.0000000000000000e+00  0.0000000000000000e+00  0.0000000000000000e+00  0.0000000000000000e+00  0.0000000000000000e+00  0.0000000000000000e+00  0.0000000000000000e+00  0.0000000000000000e+00  0.0000000000000000e+00  0.0000000000000000e+00  0.0000000000000000e+00  0.0000000000000000e+00  0.0000000000000000e+00  0.0000000000000000e+00  0.0000000000000000e+00  0.0000000000000000e+00  0.0000000000000000e+00  0.0000000000000000e+00  0.0000000000000000e+00  0.0000000000000000e+00  0.0000000000000000e+00  0.0000000000000000e+00  0.0000000000000000e+00  0.0000000000000000e+00  0.0000000000000000e+00  0.0000000000000000e+00  0.0000000000000000e+00  0.0000000000000000e+00  0.0000000000000000e+00  0.0000000000000000e+00  0.0000000000000000e+00  0.0000000000000000e+00  0.0000000000000000e+00  0.0000000000000000e+00  0.0000000000000000e+00  0.0000000000000000e+00  0.0000000000000000e+00  0.0000000000000000e+00  0.0000000000000000e+00  0.0000000000000000e+00  0.0000000000000000e+00  0.0000000000000000e+00  0.0000000000000000e+00  0.0000000000000000e+00  0.0000000000000000e+00  0.0000000000000000e+00  0.0000000000000000e+00  0.0000000000000000e+00  0.0000000000000000e+00  0.0000000000000000e+00  0.0000000000000000e+00  0.0000000000000000e+00  0.0000000000000000e+00  0.0000000000000000e+00  0.0000000000000000e+00  0.0000000000000000e+00  0.0000000000000000e+00  0.0000000000000000e+00  0.0000000000000000e+00  0.0000000000000000e+00  0.0000000000000000e+00  0.0000000000000000e+00  0.0000000000000000e+00  0.0000000000000000e+00  0.0000000000000000e+00  0.0000000000000000e+00  0.0000000000000000e+00  0.0000000000000000e+00  0.0000000000000000e+00  0.0000000000000000e+00  0.0000000000000000e+00  0.0000000000000000e+00  0.0000000000000000e+00  0.0000000000000000e+00  0.0000000000000000e+00  0.0000000000000000e+00  0.0000000000000000e+00  0.0000000000000000e+00  0.0000000000000000e+00  0.0000000000000000e+00  0.0000000000000000e+00  0.0000000000000000e+00  0.0000000000000000e+00  0.0000000000000000e+00  0.0000000000000000e+00  0.0000000000000000e+00  0.0000000000000000e+00  0.0000000000000000e+00  0.0000000000000000e+00  0.0000000000000000e+00  0.0000000000000000e+00  0.0000000000000000e+00  0.0000000000000000e+00  0.0000000000000000e+00  0.0000000000000000e+00  0.0000000000000000e+00  0.0000000000000000e+00  0.0000000000000000e+00  0.0000000000000000e+00  0.0000000000000000e+00  0.0000000000000000e+00  0.0000000000000000e+00  -3.0108593910673311e-02  -2.9700309185308259e-02  -2.9219961842325125e-02  -2.8719153752780304e-02  -2.8296352675590566e-02  -2.7969164858580888e-02  -2.7716582626384895e-02  -2.7750094066236099e-02  -2.7776596307475095e-02  -2.8020259697185631e-02  -2.8359086607164418e-02  -2.8746978195914815e-02  -2.9123786389046218e-02  -2.9565299157673443e-02  -2.9988787783984353e-02  -3.0384222568691485e-02  -3.0091909425367942e-02  -2.9821455704529827e-02  -2.9543933597124206e-02  -2.9270002066376925e-02  -2.8903411818793488e-02  -2.8548974399174410e-02  -2.8322180237924214e-02  -2.8114367914137173e-02  -2.8060472152136778e-02  -2.8121700372793695e-02  -2.8310180574292756e-02  -2.8598872208533407e-02  -2.8926537015042143e-02  -2.9363631884141487e-02  -2.9737860874522921e-02  -3.0004869487729013e-02  -3.0272503816105755e-02  -3.0545935486065053e-02  -3.0325294898244551e-02  -2.9801689675102761e-02  -2.9319008452540530e-02  -2.8795162914428147e-02  -2.8366098820467416e-02  -2.8028096330513584e-02  -2.7835010163919288e-02  -2.7742339428458444e-02  -2.7821785509492589e-02  -2.8093108545935788e-02  -2.8427755260302327e-02  -2.8816100772631623e-02  -2.9366540621610124e-02  -2.9861275250791249e-02  -3.0381905846468379e-02  -3.0533814288711020e-02  -3.0246803241150907e-02  -3.0023149835253359e-02  -2.9731799655013318e-02  -2.9347383909431052e-02  -2.8887457808273349e-02  -2.8560999349955037e-02  -2.8230884144674142e-02  -2.8022556645505400e-02  -2.7986678065495804e-02  -2.8075482122623393e-02  -2.8251218281040991e-02  -2.8442203928896601e-02  -2.8811219739998888e-02  -2.9201271135878903e-02  -2.9508382718261644e-02  -2.9830859924814261e-02  -3.0117568907291455e-02  -3.0399866843987346e-02  -2.4149494521351976e-02  -2.3283945673158710e-02  -2.4131612937267465e-02  -2.3280128403506722e-02  -2.4238063137657986e-02  -2.3745426061807798e-02  -2.4288991552947198e-02  -2.3546478228081587e-02  -2.2828031884130504e-02  -2.2863782815413635e-02  -2.2456132811499472e-02  -2.2455511350815249e-02  -2.2274802387932197e-02  -2.2740345514140364e-02  -2.4840308889442234e-02  -2.1533761416669017e-02  -2.3916938459430780e-02  -2.4200050510712563e-02  -2.2074978826966452e-02  -2.5067273940769661e-02  -2.5514971223820352e-02  -2.5413100733532729e-02  -2.5799468324970740e-02  -2.5673289477572043e-02  -2.6774096834963911e-02  -2.6280776021657092e-02  -2.7056138625176487e-02  -2.6979463203386414e-02  -2.4892062839138775e-02  -2.1673499112384153e-02  -2.0663279778119919e-02  -1.8907731215397940e-02  -1.7725906190438300e-02  -1.6160957225631697e-02  -1.4681111683886364e-02  -1.3257698135375570e-02  -1.7868133924308378e-02  -1.1423841646780194e-02  -1.0517974708750181e-02  -1.3582245674206841e-02  -1.1228708156088956e-02  -1.4576416138303957e-02  -1.3389666036738119e-02  -1.0328644451772924e-02  -1.2800777067237996e-02  -1.0719596685673537e-02  -1.3810601954111525e-02  -1.2991117639835889e-02  -1.6153782655308958e-02  -1.6071244652394383e-02  -1.3732782163992060e-02  -1.0848402412803082e-02  -1.2884373131120643e-02  -1.0643031769932136e-02  -1.3002290266147402e-02  -1.1155206574820810e-02  -1.3826548438626331e-02  -1.2436804529105483e-02  -1.5528235890300082e-02  -1.3928224964584046e-02  -1.1038312301881287e-02  -1.3569882557193536e-02  -1.1148135613746757e-02  -1.6429524995080689e-02  -1.6756875000627156e-02  -1.7391711431613444e-02  -1.6733902750276159e-02  -1.6653863865646941e-02  -1.7927807441204001e-02  -1.5419016975691998e-02  -1.2584957002118743e-02  -1.9807302586694948e-02  -1.8153328110789457e-02  -1.6264503807730722e-02  -1.7014085661528424e-02  -1.5752261692580063e-02  -1.2149739188174937e-02  -1.6070623429554887e-02  -1.3050961845141632e-02  -9.7253505471969169e-03  -1.1662939750445708e-02  -1.4501590732117292e-02  -1.4015758849100056e-02  -1.0457716604951595e-02  -1.3605282351902446e-02  -1.6358518472004712e-02  -1.6463307377299334e-02  -1.4685786130305184e-02  -1.8764266092281229e-02  -1.9344633652499759e-02  -2.1193845845319508e-02  -2.1242782687457926e-02  -9.0231040592941535e-03  -1.9447346034970378e-02  -1.9263394196409381e-02  -1.9941792118266286e-02  -1.8129528129794872e-02  -2.1546264252765009e-02  -2.1838241587327681e-02  -2.0310299039690387e-02  -1.6390858790607289e-02  -1.9052316747173871e-02  -2.0829760022571510e-02  -1.8148058537893124e-02  -1.6106019658943795e-02  -1.8491432599946726e-02  -1.9077061159315782e-02  -1.6461787923920158e-02  -1.8765545807905820e-02  -2.0868472535182595e-02  -2.1364519972128043e-02  -2.0137849702482204e-02  -2.0103007223876243e-02  -1.8991954904511974e-02  -2.1324862097411475e-02  -1.6784760238031153e-02  -8.4212099716672716e-03  -2.1089484223848810e-02  -8.4756812531825154e-03  -1.4340820887762876e-02  -1.7569393824755739e-02  -1.4885637899031209e-02  -1.7714349841698427e-02  -2.0005010634303599e-02  -2.0543260338299792e-02  -1.8812345514312816e-02  -1.6901288577567463e-02  -1.8585847447511183e-02  -1.9281475526112896e-02  -1.0099997590536328e-02  -2.3057804236676915e-02  -2.3447397465502208e-02  -1.7269861039670674e-02  -1.9708017796868170e-02  -1.9190868997741892e-02  -1.7514295788875811e-02  -1.8472925085237943e-02  -2.0895219433635988e-02  -1.9161726815188240e-02  -2.0819921219447850e-02  -2.1279699105470361e-02  -2.2616377036762485e-02  -2.4159425414064854e-02  -2.4763342038955891e-02  -1.9960855824481667e-02  -2.2092714159203313e-02  -2.2297628469982136e-02  -2.2539745487416805e-02  -2.4481748462018563e-02  -2.5545687131787485e-02  -2.2870068609114433e-02  -1.9273731159086684e-02  -1.6866628023839526e-02  -2.4175219781726730e-02  -2.3448335487146303e-02  -2.2374321410041066e-02  -2.5116045313766516e-02  -2.2125324926960944e-02  -2.2076892894569128e-02  -2.3688886926487518e-02  -2.5530019500492645e-02  -2.2773060779569119e-02  -2.2279504843145920e-02  -2.3853969631882840e-02  -2.1023933696220343e-02  -2.3141016981874676e-02  -2.0384296474514486e-02  -2.2735526312978722e-02  -2.4527283303289946e-02  -2.5915813281808132e-02  -2.4456621865349141e-02  -2.1363047799467981e-02  -1.8111449916549602e-02  -2.2991583073191751e-02  -2.3671100160626620e-02  -2.1582025646080846e-02  -2.6897934291008094e-02  -2.6907057470716769e-02  -2.6996806169063928e-02  -2.7015945966491737e-02  -2.3190826283498216e-02  -9.6796853288813253e-03  -7.9478639568492885e-03  -1.9805947301301582e-02  -2.3773998615683797e-02  -2.4167701790565630e-02  -2.2934970064747894e-02  -2.5805028604062946e-02  -2.2610120943926098e-02  -2.2087864613551743e-02  -1.8590866279602609e-02  -1.7576119680929474e-02  -2.2321553544991407e-02  -1.7276660817721886e-02  -8.7931221635336957e-03  -8.8635621784699786e-03  -1.2212424101761652e-02  -2.0233986416121171e-02  -2.2051587115517329e-02  -1.8961262146088901e-02  -2.0142509333742172e-02  -1.8970407981861080e-02  -2.3303754340575772e-02  -2.3134286661779510e-02  -9.2271403847521503e-03  -2.3400089478549560e-02  -1.9406164952723088e-02  -2.0339981646597397e-02  -1.6194945427395965e-02  -2.2053815257583934e-02  -1.6420512129469465e-02  -1.2181284382831819e-02  -2.3551421212049565e-02  -7.6231087327555064e-03  -1.5439158745685275e-02  -2.4986567727706261e-02  -1.6826408410727627e-02  -1.9279926863695295e-02  -1.9810517518452749e-02  -9.4965551704626616e-03  -2.3449861381040136e-02  -2.1075319910950026e-02  -1.9129430646345317e-02  -7.3702145892737617e-03  -2.0626634465872731e-02  -1.9253748054421049e-02  -7.9310416398958531e-03  -1.5990805928966817e-02  -1.8960585367297087e-02  -7.4260286563421467e-03  -1.6265734295011876e-02  -2.1197746615100075e-02  -2.1658058635294453e-02  -1.8295528965644896e-02  -1.5323230077056247e-02  -1.9377457885556566e-02  -2.3948825429866535e-02  -1.6684421862019846e-02  -2.8151871390786110e-02  -2.8242385915622909e-02  -2.8133382126768674e-02  -2.8312181954898399e-02  -2.1151136272879349e-02  -2.3367745453703747e-02  -2.1166482843019686e-02  -2.2575211928826364e-02  -1.9754326299164397e-02  -1.5226610197591639e-02  -2.2813409780504980e-02  -2.1795360195810860e-02  -1.8330262426347249e-02  -1.4308989419529955e-02  -1.5625222828307125e-02  -1.3945562428808480e-02  -2.1735151661288074e-02  -1.4270092106356684e-02  -1.9497343220344739e-02  -1.3843568572471496e-02  -7.5467273989958455e-03  -1.8952558025581736e-02  -1.6117359230800168e-02  -1.7808997657231228e-02  -1.9296950515482265e-02  -1.5370116596769706e-02  -1.4415356708479337e-02  -8.6825767934569833e-03  -2.4156766418348664e-02  -3.1730047065586124e-02  -3.2098890425604786e-02  -3.4006874202114755e-02  -3.6475885680585789e-02  -3.3983953990629263e-02  -3.7074659132868983e-02  -3.2046761992736081e-02  -3.3684552959924424e-02  -3.2003285885329372e-02  -3.3754543705462409e-02  -3.6599149480018620e-02  -3.6378326861025226e-02  -1.6956027219352843e-02  -1.5088865324719269e-02  -1.8230191739318898e-02  -1.5719846674048604e-02  -3.2417453557303966e-02  -3.5888563300848261e-02  -3.6034849156030953e-02  -3.2426210512845853e-02  -4.0827258602831110e-02  -4.6144773734015862e-02  -3.2997281142781811e-02  -3.2888956076150326e-02  -3.7698745566425641e-02  -4.7562085433892558e-02  -4.9996969706979262e-02  -4.9701792028916454e-02  -5.1475840821215320e-02  -5.1584929460722864e-02  -1.7381722246786292e-02  -1.6880011907827713e-02  -1.7389964916326706e-02  -1.6873486282304343e-02  -1.7441484205535991e-02  -1.6978487739161986e-02  -1.8032370554885671e-02  -5.1376160335634538e-02  -5.1660292245305911e-02  -4.9811348996277253e-02  -4.8152795085461865e-02  -1.9175557112076819e-02  -1.8494768993369486e-02  -1.7728948741145990e-02  -1.7292499278788214e-02  -1.8756146187680827e-02  -1.7633130463291152e-02  -2.0337769158304229e-02  -1.5918756495273811e-02  -4.8241849533179608e-02  -4.7174460661306789e-02  -1.7862786294132554e-02  -1.6040363266378501e-02  -1.7890760648294694e-02  -4.1108223473017493e-02  -4.5919288972215137e-02  -4.8264385750486492e-02  -5.0386078982319595e-02  -5.1272142439265152e-02  -5.1538374600879289e-02  -5.0883346885405203e-02  -5.1279633039235342e-02  -5.1253881322659386e-02  -4.9775628604906245e-02  -4.1019694852867383e-02  -4.6153138244592780e-02  -4.8286050579301340e-02  -5.0414232636501341e-02  -4.9189864376117873e-02  -5.1328753157034078e-02  -5.1616742813055921e-02  -5.1498794465837112e-02  -5.1379715832532584e-02  -5.0127754092320592e-02  -3.4260327391819848e-02  -4.0898567954624938e-02  -4.6215397098359798e-02  -4.7666348105695623e-02  -5.0181963007445159e-02  -4.9861369540279664e-02  -5.1658297281608173e-02  -5.1776085443698244e-02  -5.1633402295259707e-02  -5.1716201167430087e-02  -3.1763754409737714e-02  -3.2177035225645308e-02  -3.3662239307910048e-02  -3.3706818661193218e-02  -5.0899075707440948e-02  -4.9924906751127998e-02  -4.9849005095222790e-02  -4.9795402422737702e-02  -4.9664038553595767e-02  -4.9984993602682978e-02  -1.8096751433509934e-02  -4.9412187588501327e-02  -5.1236205901667838e-02  -4.9494751637652427e-02  -4.9128537277523060e-02  -5.0637422351953530e-02  -5.0436288290356263e-02  -3.4248632643813962e-02  -4.6053868086408344e-02  -4.6030145357183951e-02  -1.4834223327874929e-02  -1.3829354590044970e-02  -1.4845521592729328e-02  -4.5278053425152794e-02  -4.6107648099498390e-02  -4.4361206625970283e-02  -4.3675965945576316e-02  -4.7825231139206559e-02  -4.9458515713973972e-02  -4.7387186861769327e-02  -4.8928305643079983e-02  -4.5974536061186566e-02  -4.8823732008637988e-02  -4.5240769825657300e-02  -4.7627284064158802e-02  -4.4072475901092353e-02  -4.5707788754259689e-02  -4.5987120240887538e-02  -4.8668368571166278e-02  -4.5141215321893843e-02  -4.7252022941045073e-02  -4.3925167354098751e-02  -4.5725948731300703e-02  -4.2679672270805831e-02  -4.4443779061362168e-02  -4.1709051103792159e-02  -4.3564923832376409e-02  -4.1033942791394093e-02  -4.3164640151723346e-02  -4.0740234315723919e-02  -4.3311528424639950e-02  -4.2654359492176559e-02  -4.4319750449715735e-02  -4.1581864635362092e-02  -4.3395290363489762e-02  -4.0859196364016900e-02  -4.2973770540041367e-02  -4.0515035540333123e-02  -4.3126861551227809e-02  -4.5569363969206522e-02  -4.5406135422554915e-02  -4.9111792226207145e-02  -4.8928459005352143e-02  -4.5258110336985062e-02  -4.4828033177503765e-02  -4.1151765368377551e-02  -4.4018911444573927e-02  -4.1823116266634638e-02  -4.5069615278441444e-02  -4.2594960900167733e-02  -4.0901391788430795e-02  -4.3789415177452953e-02  -4.1482688643909089e-02  -4.4783899528478756e-02  -4.2196043280375961e-02  -5.0040111997281825e-02  -4.6742955515973121e-02  -4.5974007587930313e-02  -4.4296886380811723e-02  -4.5663595638570038e-02  -4.4442254620145970e-02  -4.5841039432794300e-02  -4.2525362612382156e-02  -3.9542712586681253e-02  -4.2771524536377316e-02  -3.9586293396215853e-02  -4.3235402024563399e-02  -3.5680155604693967e-02  -4.3376535910706719e-02  -4.4639202438540852e-02  -4.0939597325001978e-02  -3.9694589833637481e-02  -3.5493009396279362e-02  -4.4474768013195463e-02  -3.9996735106258494e-02  -4.5870400356115643e-02  -3.9079284229507363e-02  -4.5980052894856939e-02  -3.7926526312604861e-02  -3.8046183438412609e-02  -3.7183194493990497e-02  -4.3229541691112684e-02  -3.8507903507105194e-02  -4.2904078703367252e-02  -3.0715025396137914e-02  -4.9997403613997390e-02  -1.1707908725019069e-02  -4.5900412330324290e-02  -5.0029980163423513e-02  -3.7636785232026675e-02  -3.6975571669140971e-02  -4.1668469822663749e-02  -3.7619168707578685e-02  -4.5591503887852367e-02  -4.5554082330295662e-02  -4.4845671278470230e-02  -4.8296269884717274e-02  -4.6481551996884626e-02  -4.7397102486864705e-02  -4.5913466797712639e-02  -4.4064402084487690e-02  -4.3019836193308243e-02  -4.6011631167041322e-02  -4.4329030682711448e-02  -4.1977631189528776e-02  -4.2721884811403661e-02  -4.1016937633380920e-02  -4.1771719151493213e-02  -4.0605461325869674e-02  -4.1254283793102850e-02  -4.0601960267943736e-02  -4.1115159848652910e-02  -3.7807365437324096e-02  -4.2503380620146490e-02  -4.3363213887018588e-02  -4.2242860389290794e-02  -3.1056671175899948e-02  -4.1073792762338579e-02  -3.7697776421946973e-02  -3.8519043146506095e-02  -3.6452297393271549e-02  -1.0678474726918777e-02  -1.2453448179320996e-02  -1.1787067107681015e-02  -4.5076118834786114e-02  -3.8745592181149507e-02  -4.8875749850903712e-02  -4.3741482012987581e-02  -4.6864058496033700e-02  -3.2637307539124805e-02  -3.3313218807460881e-02  -3.4238335187514582e-02  -3.9894856943119297e-02  -4.3403611975709674e-02  -4.6409174392097352e-02  -4.4705990565628441e-02  -3.9959446077492980e-02  -4.2471431128500423e-02  -4.3081933692702579e-02  -4.2321694894003815e-02  -4.0474153778066541e-02  -4.1574571811870853e-02  -3.8101050789858565e-02  -4.0678076173764191e-02  -4.1084582833282771e-02  -4.1543477581626687e-02  -3.9683027460321145e-02  -4.2108758805390833e-02  -3.8543709351812776e-02  -4.2277525768260743e-02  -4.2763685333175434e-02  -4.4209595133654758e-02  -4.2212016811505021e-02  -4.5689201026822571e-02  -4.1532565559179183e-02  -4.6580349601360427e-02  -3.9903893057850470e-02  -4.5001495375317377e-02  -4.2269916108214477e-02  -4.4185812349887603e-02  -4.1392727481853603e-02  -4.8808288689100095e-02  -4.7333941433992444e-02  -3.7199895710727592e-02  -3.4484741174813469e-02  -4.2297497660573342e-02  -4.1429712606217819e-02  -4.7472774005031089e-02  -4.0196022446897441e-02  -4.7302732091739498e-02  -3.6323334750578008e-02  -3.8493202687579289e-02  -4.1580665332174742e-02  -4.7123545965656988e-02  -3.5404869481838595e-02  -4.2083470884126208e-02  -3.9485630044430363e-02  -3.6295709120937283e-02  -3.6513618813968106e-02  -3.8483888322261614e-02  -4.2386278607511832e-02  -3.7584902821378947e-02  -4.0814131487224070e-02  -3.98056282850