<?xml version="1.0"?>
<VTKFile type="UnstructuredGrid"  version="0.1"  >
<UnstructuredGrid>
<Piece  NumberOfPoints="1297" NumberOfCells="2496">
<Points>
<DataArray  type="Float64"  NumberOfComponents="3"  format="ascii">0 0 0  0 1 0  1 1 0  1 0 0  1.1 -0.1 0  -0.1 -0.1 0  1.1 1.1 0  -0.1 1.1 0  0.3089426007212817 0.6579375037080882 0  0.3095332191115768 0.342562592117228 0  0.6922432817877615 0.3415752823808726 0  0.6923050140034314 0.6587629694500458 0  0.5005542234359924 0.5001838250733749 0  0 0.9499999999997918 0  0 0.8999999999995836 0  0 0.8499999999996529 0  0 0.7999999999999998 0  0 0.7500000000003466 0  0 0.7000000000006934 0  0 0.6500000000010401 0  0 0.6000000000013869 0  0 0.5500000000017335 0  0 0.5000000000020587 0  0 0.4500000000018723 0  0 0.4000000000016644 0  0 0.3500000000014564 0  0 0.3000000000012483 0  0 0.2500000000010403 0  0 0.2000000000008322 0  0 0.1500000000006241 0  0 0.100000000000416 0  0 0.05000000000020799 0  0.04999999999989965 0 0  0.09999999999981467 0 0  0.1499999999997036 0 0  0.1999999999995579 0 0  0.2499999999994121 0 0  0.2999999999992664 0 0  0.3499999999991206 0 0  0.3999999999989749 0 0  0.4499999999988292 0 0  0.4999999999986943 0 0  0.5499999999988151 0 0  0.5999999999989468 0 0  0.6499999999990784 0 0  0.69999999999921 0 0  0.7499999999993417 0 0  0.7999999999994734 0 0  0.8499999999996051 0 0  0.8999999999997368 0 0  0.9499999999998684 0 0  1 0.04999999999989965 0  1 0.09999999999981467 0  1 0.1499999999997036 0  1 0.1999999999995579 0  1 0.2499999999994121 0  1 0.2999999999992664 0  1 0.3499999999991206 0  1 0.3999999999989749 0  1 0.4499999999988292 0  1 0.4999999999986943 0  1 0.5499999999988151 0  1 0.5999999999989468 0  1 0.6499999999990784 0  1 0.69999999999921 0  1 0.7499999999993417 0  1 0.7999999999994734 0  1 0.8499999999996051 0  1 0.8999999999997368 0  1 0.9499999999998684 0  0.9499999999997918 1 0  0.8999999999995836 1 0  0.8499999999996529 1 0  0.7999999999999998 1 0  0.7500000000003466 1 0  0.7000000000006934 1 0  0.6500000000010401 1 0  0.6000000000013869 1 0  0.5500000000017335 1 0  0.5000000000020587 1 0  0.4500000000018723 1 0  0.4000000000016644 1 0  0.3500000000014564 1 0  0.3000000000012483 1 0  0.2500000000010403 1 0  0.2000000000008322 1 0  0.1500000000006241 1 0  0.100000000000416 1 0  0.05000000000020799 1 0  -0.1 1.05000000000004 0  -0.1 1.000000000000079 0  -0.1 0.9500000000001624 0  -0.1 0.9000000000003032 0  -0.1 0.850000000000444 0  -0.1 0.8000000000005848 0  -0.1 0.7500000000007256 0  -0.1 0.7000000000008665 0  -0.1 0.6500000000010508 0  -0.1 0.6000000000012352 0  -0.1 0.5500000000014196 0  -0.1 0.500000000001539 0  -0.1 0.4500000000014195 0  -0.1 0.4000000000013 0  -0.1 0.3500000000011588 0  -0.1 0.3000000000010178 0  -0.1 0.2500000000008986 0  -0.1 0.2000000000007579 0  -0.1 0.1500000000006174 0  -0.1 0.1000000000005272 0  -0.1 0.05000000000040083 0  -0.1 2.671196597248127e-13 0  -0.1 -0.0499999999998666 0  -0.0500000000000906 -0.1 0  -1.730560139634463e-13 -0.1 0  0.04999999999975802 -0.1 0  0.09999999999961506 -0.1 0  0.1499999999994613 -0.1 0  0.199999999999302 -0.1 0  0.2499999999991446 -0.1 0  0.2999999999990088 -0.1 0  0.3499999999988296 -0.1 0  0.3999999999986936 -0.1 0  0.4499999999985143 -0.1 0  0.4999999999984002 -0.1 0  0.5499999999985247 -0.1 0  0.5999999999986493 -0.1 0  0.6499999999987955 -0.1 0  0.6999999999989417 -0.1 0  0.7499999999990659 -0.1 0  0.7999999999992116 -0.1 0  0.8499999999993573 -0.1 0  0.8999999999994526 -0.1 0  0.949999999999584 -0.1 0  0.9999999999997226 -0.1 0  1.049999999999861 -0.1 0  1.1 -0.0500000000000906 0  1.1 -1.730560139634463e-13 0  1.1 0.04999999999975802 0  1.1 0.09999999999961506 0  1.1 0.1499999999994613 0  1.1 0.199999999999302 0  1.1 0.2499999999991446 0  1.1 0.2999999999990088 0  1.1 0.3499999999988296 0  1.1 0.3999999999986936 0  1.1 0.4499999999985143 0  1.1 0.4999999999984002 0  1.1 0.5499999999985247 0  1.1 0.5999999999986493 0  1.1 0.6499999999987955 0  1.1 0.6999999999989417 0  1.1 0.7499999999990659 0  1.1 0.7999999999992116 0  1.1 0.8499999999993573 0  1.1 0.8999999999994526 0  1.1 0.949999999999584 0  1.1 0.9999999999997226 0  1.1 1.049999999999861 0  1.05000000000004 1.1 0  1.000000000000079 1.1 0  0.9500000000001624 1.1 0  0.9000000000003032 1.1 0  0.850000000000444 1.1 0  0.8000000000005848 1.1 0  0.7500000000007256 1.1 0  0.7000000000008665 1.1 0  0.6500000000010508 1.1 0  0.6000000000012352 1.1 0  0.5500000000014196 1.1 0  0.500000000001539 1.1 0  0.4500000000014195 1.1 0  0.4000000000013 1.1 0  0.3500000000011588 1.1 0  0.3000000000010178 1.1 0  0.2500000000008986 1.1 0  0.2000000000007579 1.1 0  0.1500000000006174 1.1 0  0.1000000000005272 1.1 0  0.05000000000040083 1.1 0  2.671196597248127e-13 1.1 0  -0.0499999999998666 1.1 0  0.2994193394005005 0.6456218855152467 0  0.2888184277822535 0.6295160132173364 0  0.278900031810127 0.6111672019553457 0  0.2702142433421543 0.5909134551466695 0  0.2632103134826392 0.5693364057995683 0  0.2580866189466493 0.5467445375932584 0  0.2549784036742664 0.5235047036921354 0  0.2539867317110208 0.5000323322601719 0  0.2551036812458826 0.4764750761195287 0  0.2583267116646753 0.4532371986169147 0  0.2635749946390223 0.4307046164826694 0  0.2706947809073642 0.4092121112953744 0  0.2794639911605975 0.3890781425525159 0  0.2894593505166045 0.3707773083170424 0  0.3000910226723251 0.3547310859580976 0  0.3198028054076253 0.3310379035149454 0  0.3333485185387002 0.3179700516831986 0  0.3493040740361634 0.3049982698904364 0  0.3672455387614851 0.2928877746503624 0  0.3868672304187323 0.2820890047237946 0  0.4078732426404568 0.2729151364899939 0  0.4299949762376193 0.2655731302430728 0  0.4529203778076976 0.2601996194617651 0  0.4764262790615236 0.2568836017475609 0  0.5001988427198431 0.2556860020981209 0  0.5240091910276181 0.2566220436701344 0  0.5475875469854764 0.2596804024401231 0  0.5706339582154143 0.2648136059958413 0  0.5928808959797994 0.2719571625291685 0  0.614046717855057 0.2809704125605513 0  0.6338531093104985 0.2916646563930084 0  0.651985896901254 0.3037467509909486 0  0.6681404408902473 0.3167703654248827 0  0.6818129595419008 0.3298963189878175 0  0.7018701199912885 0.3539873228531619 0  0.7124600668067711 0.3700488702575258 0  0.7224835806236681 0.3885443478459204 0  0.7312431276127437 0.4089216950307564 0  0.7382958666834871 0.430594891751145 0  0.7434469257371357 0.4532093770023685 0  0.7465888517453007 0.476463006087004 0  0.7476547415940779 0.5000498259646401 0  0.7466146871619691 0.5236545687971614 0  0.7434880049763185 0.5470081710863764 0  0.7383565096843595 0.5696301750983604 0  0.731303918225803 0.5913495935406888 0  0.722584327946307 0.6116912664180256 0  0.7125646040817066 0.6302151905899608 0  0.7019683115267741 0.6463015590175067 0  0.6818588500054619 0.6704594968972405 0  0.6681375879483807 0.6836307402971316 0  0.6520069261737036 0.6966469968615177 0  0.6339001585996726 0.7087256485122801 0  0.6141283761878394 0.719421453832413 0  0.5929767802427964 0.7284514388607106 0  0.5707134810216673 0.7356355376875314 0  0.5476680907204785 0.7408069897584376 0  0.5240859495339181 0.7439019512114763 0  0.5002540540680162 0.7448771740413014 0  0.4764559786611091 0.7437218454022586 0  0.452951599967878 0.7404542587646018 0  0.4299769092108814 0.7351233312080648 0  0.40778538421148 0.7278153012281755 0  0.3867281406818667 0.7186840603886554 0  0.3670026618391053 0.7078787397061173 0  0.3489345743669813 0.695717539582085 0  0.3328849144207521 0.6826862839045476 0  0.3192628855717426 0.6695405855258197 0  0.3787078109600168 0.3137610767301374 0  0.285108550980676 0.4418949991592045 0  0.37855446475441 0.686866239403897 0  0.2848281985922417 0.5582165506586918 0  0.7134198147290068 0.5804530824001177 0  0.6019227462461588 0.6970597429831386 0  0.6215122494821627 0.3120035809008787 0  0.7181723405656023 0.4410561327012399 0  0.722508398269563 0.5112870225558837 0  0.5573647481770617 0.2902753901972908 0  0.4436661492584283 0.2932235911369561 0  0.4423224681696565 0.7076380090351831 0  0.5351588909651599 0.7122979429382547 0  0.2797472991258976 0.4882773045881799 0  0.2948732402361948 0.3982880147245574 0  0.4888800878431364 0.2904589229784154 0  0.2996055565496827 0.6005612501467497 0  0.7009952804631365 0.3959156394911027 0  0.4886911221656313 0.713927236202715 0  0.6418840929212571 0.6785967109068604 0  0.3412962333486563 0.3351857797605784 0  0.660348543444091 0.335695120892646 0  0.3413950220573502 0.6677626549407435 0  0.6969486691179371 0.6239320322413949 0  0.3107630893612899 0.3598339751045231 0  0.311890046579911 0.6397349785732438 0  0.6762697741791295 0.6589390532397674 0  0.6913994862104269 0.3587731175201407 0  0.3592857967449355 0.6774997336766991 0  0.3692927292861569 0.6588930991591407 0  0.3894701002075319 0.6655391986974439 0  0.3787021096968907 0.638416629043052 0  0.4004652176248853 0.6434030857234477 0  0.38800660430261 0.6144010942607733 0  0.414737625373102 0.6184122077525303 0  0.3991791320986274 0.5845887624101616 0  0.362070763173323 0.6092899857511468 0  0.4322935609391713 0.5869731503638391 0  0.4127440442188274 0.5490815162980055 0  0.3737078837461251 0.5531959276905981 0  0.3900115297177787 0.5144827474027663 0  0.3525024417189158 0.5162169730420162 0  0.3656183852008461 0.482014372110641 0  0.4049201094167551 0.4762889419723981 0  0.3845083639541763 0.4438381412503879 0  0.4198191543895541 0.437094850178022 0  0.4004233315261909 0.4063295532262646 0  0.4324104385214582 0.3918818518842094 0  0.3675698338256657 0.4102680209947065 0  0.4090537341537889 0.3714920284709553 0  0.4410683219707387 0.6230244517853154 0  0.4663322208549725 0.5967679833164174 0  0.4843513219085909 0.6257689665664354 0  0.5026345518076245 0.5990458939785568 0  0.5200134224341393 0.6260083167706995 0  0.5380744415053392 0.5989712501310673 0  0.5550694992320567 0.6252137556355334 0  0.57286856930757 0.5984563997395927 0  0.5900713827186167 0.6260181792017181 0  0.6070075883918891 0.5902643339601508 0  0.591757274081699 
[...]
<PointData  Scalars="state"> 
<DataArray  type="Float64"  Name="state"  format="ascii">0.0000000000000000e+00  0.0000000000000000e+00  0.0000000000000000e+00  0.0000000000000000e+00  0.0000000000000000e+00  0.0000000000000000e+00  0.0000000000000000e+00  0.0000000000000000e+00  -3.0735949628878673e-02  -3.0704385451489551e-02  -3.0871182094574130e-02  -3.0895430622086890e-02  -6.8909287489842376e-03  0.0000000000000000e+00  0.0000000000000000e+00  0.0000000000000000e+00  0.0000000000000000e+00  0.0000000000000000e+00  0.0000000000000000e+00  0.0000000000000000e+00  0.0000000000000000e+00  0.0000000000000000e+00  0.0000000000000000e+00  0.0000000000000000e+00  0.0000000000000000e+00  0.0000000000000000e+00  0.0000000000000000e+00  0.0000000000000000e+00  0.0000000000000000e+00  0.0000000000000000e+00  0.0000000000000000e+00  0.0000000000000000e+00  0.0000000000000000e+00  0.0000000000000000e+00  0.0000000000000000e+00  0.0000000000000000e+00  0.0000000000000000e+00  0.0000000000000000e+00  0.0000000000000000e+00  0.0000000000000000e+00  0.0000000000000000e+00  0.0000000000000000e+00  0.0000000000000000e+00  0.0000000000000000e+00  0.0000000000000000e+00  0.0000000000000000e+00  0.0000000000000000e+00  0.0000000000000000e+00  0.0000000000000000e+00  0.0000000000000000e+00  0.0000000000000000e+00  0.0000000000000000e+00  0.0000000000000000e+00  0.0000000000000000e+00  0.0000000000000000e+00  0.0000000000000000e+00  0.0000000000000000e+00  0.0000000000000000e+00  0.0000000000000000e+00  0.0000000000000000e+00  0.0000000000000000e+00  0.0000000000000000e+00  0.0000000000000000e+00  0.0000000000000000e+00  0.0000000000000000e+00  0.0000000000000000e+00  0.0000000000000000e+00  0.0000000000000000e+00  0.0000000000000000e+00  0.0000000000000000e+00  0.0000000000000000e+00  0.0000000000000000e+00  0.0000000000000000e+00  0.0000000000000000e+00  0.0000000000000000e+00  0.0000000000000000e+00  0.0000000000000000e+00  0.0000000000000000e+00  0.0000000000000000e+00  0.0000000000000000e+00  0.0000000000000000e+00  0.0000000000000000e+00  0.0000000000000000e+00  0.0000000000000000e+00  0.0000000000000000e+00  0.0000000000000000e+00  0.0000000000000000e+00  0.0000000000000000e+00  0.0000000000000000e+00  0.0000000000000000e+00  0.0000000000000000e+00  0.0000000000000000e+00  0.0000000000000000e+00  0.0000000000000000e+00  0.0000000000000000e+00  0.0000000000000000e+00  0.0000000000000000e+00  0.0000000000000000e+00  0.0000000000000000e+00  0.0000000000000000e+00  0.0000000000000000e+00  0.0000000000000000e+00  0.0000000000000000e+00  0.0000000000000000e+00  0.0000000000000000e+00  0.0000000000000000e+00  0.0000000000000000e+00  0.0000000000000000e+00  0.0000000000000000e+00  0.0000000000000000e+00  0.0000000000000000e+00  0.0000000000000000e+00  0.0000000000000000e+00  0.0000000000000000e+00  0.0000000000000000e+00  0.0000000000000000e+00  0.0000000000000000e+00  0.0000000000000000e+00  0.0000000000000000e+00  0.0000000000000000e+00  0.0000000000000000e+00  0.0000000000000000e+00  0.0000000000000000e+00  0.0000000000000000e+00  0.0000000000000000e+00  0.0000000000000000e+00  0.0000000000000000e+00  0.0000000000000000e+00  0.0000000000000000e+00  0.0000000000000000e+00  0.0000000000000000e+00  0.0000000000000000e+00  0.0000000000000000e+00  0.0000000000000000e+00  0.0000000000000000e+00  0.0000000000000000e+00  0.0000000000000000e+00  0.0000000000000000e+00  0.0000000000000000e+00  0.0000000000000000e+00  0.0000000000000000e+00  0.0000000000000000e+00  0.0000000000000000e+00  0.0000000000000000e+00  0.0000000000000000e+00  0.0000000000000000e+00  0.0000000000000000e+00  0.0000000000000000e+00  0.0000000000000000e+00  0.0000000000000000e+00  0.0000000000000000e+00  0.0000000000000000e+00  0.0000000000000000e+00  0.0000000000000000e+00  0.0000000000000000e+00  0.0000000000000000e+00  0.0000000000000000e+00  0.0000000000000000e+00  0.0000000000000000e+00  0.0000000000000000e+00  0.0000000000000000e+00  0.0000000000000000e+00  0.0000000000000000e+00  0.0000000000000000e+00  0.0000000000000000e+00  0.0000000000000000e+00  0.0000000000000000e+00  0.0000000000000000e+00  0.0000000000000000e+00  0.0000000000000000e+00  0.0000000000000000e+00  0.0000000000000000e+00  0.0000000000000000e+00  0.0000000000000000e+00  0.0000000000000000e+00  0.0000000000000000e+00  0.0000000000000000e+00  0.0000000000000000e+00  0.0000000000000000e+00  0.0000000000000000e+00  0.0000000000000000e+00  -2.9967938078986543e-02  -2.9592542052953252e-02  -2.9159082574594538e-02  -2.8710054561795446e-02  -2.8335543758093384e-02  -2.8046499255921106e-02  -2.7817714631716863e-02  -2.7859935709846479e-02  -2.7878359441560491e-02  -2.8098177008320672e-02  -2.8399161168366473e-02  -2.8738657098206343e-02  -2.9063663134922972e-02  -2.9459186835406933e-02  -2.9850724256175350e-02  -3.0232321569810691e-02  -2.9956697283931938e-02  -2.9721301902769767e-02  -2.9487056239100199e-02  -2.9258670545936494e-02  -2.8933159743175316e-02  -2.8609746292789427e-02  -2.8405088421869135e-02  -2.8210003091236138e-02  -2.8160620479760586e-02  -2.8218795234523010e-02  -2.8395054504992807e-02  -2.8660959295389022e-02  -2.8958371844143908e-02  -2.9353406233205804e-02  -2.9680697428280316e-02  -2.9903204770467859e-02  -3.0134360473472996e-02  -3.0390286235838688e-02  -3.0183773431143892e-02  -2.9691444763843819e-02  -2.9255767060362491e-02  -2.8784065312955926e-02  -2.8402891631583257e-02  -2.8103145577072452e-02  -2.7934035413155121e-02  -2.7849363112176891e-02  -2.7920676307978776e-02  -2.8168176417504912e-02  -2.8464406866375490e-02  -2.8804999205880470e-02  -2.9303783711629960e-02  -2.9751780772465524e-02  -3.0241054943901474e-02  -3.0378575745014087e-02  -3.0108026846104186e-02  -2.9918601690322053e-02  -2.9671889790072754e-02  -2.9334660567701381e-02  -2.8916691960055529e-02  -2.8620653380478759e-02  -2.8312805135317164e-02  -2.8116721097743592e-02  -2.8085482361164212e-02  -2.8170689365604944e-02  -2.8334117020336905e-02  -2.8503412864029545e-02  -2.8840786669757992e-02  -2.9189133570184152e-02  -2.9451477057580028e-02  -2.9730422789408129e-02  -2.9980727346682685e-02  -3.0245745871269436e-02  -2.4111371954157721e-02  -2.3313323878107868e-02  -2.4092668797802492e-02  -2.3309873037838724e-02  -2.4237590803472934e-02  -2.3730872078829769e-02  -2.4250839401685587e-02  -2.3574723824071553e-02  -2.2888046574573204e-02  -2.2893761634576824e-02  -2.2482959394925343e-02  -2.2480076284942217e-02  -2.2310712567219709e-02  -2.2802937080016343e-02  -2.4806479337306373e-02  -2.1571806547716815e-02  -2.3885484561179459e-02  -2.4160713087563207e-02  -2.2116831900327330e-02  -2.4998762402326690e-02  -2.5428241276380752e-02  -2.5325658261518839e-02  -2.5710642090255195e-02  -2.5600042827620861e-02  -2.6675387555594978e-02  -2.6184572730375246e-02  -2.6945966731724599e-02  -2.6876526378210620e-02  -2.4826586629970848e-02  -2.1631475423590698e-02  -2.0637013639179844e-02  -1.8879885137532752e-02  -1.7708128853364306e-02  -1.6145727861399062e-02  -1.4670982164486000e-02  -1.3253564850326627e-02  -1.7846430600310211e-02  -1.1418976647212267e-02  -1.0519094215305110e-02  -1.3587182909987172e-02  -1.1236957920578224e-02  -1.4593326519309819e-02  -1.3403583126332618e-02  -1.0333898648170995e-02  -1.2804437016310533e-02  -1.0718762394339960e-02  -1.3804500909683316e-02  -1.2984273071734408e-02  -1.6144446519814032e-02  -1.6058745819583900e-02  -1.3725080975410016e-02  -1.0841187946772296e-02  -1.2877733301608291e-02  -1.0634512339335487e-02  -1.2995189800293010e-02  -1.1146798382465371e-02  -1.3817966135208528e-02  -1.2428545583678055e-02  -1.5513858927992617e-02  -1.3920742284809958e-02  -1.1037423336566593e-02  -1.3572575466969878e-02  -1.1153605127575482e-02  -1.6419398827074938e-02  -1.6762313567268511e-02  -1.7381871894357675e-02  -1.6737561971142470e-02  -1.6666646078069978e-02  -1.7955101160589518e-02  -1.5414601328336216e-02  -1.2578372814780763e-02  -1.9795946041358509e-02  -1.8149690779178485e-02  -1.6270239417400783e-02  -1.7018078092954397e-02  -1.5754448975777914e-02  -1.2143464071321360e-02  -1.6074854457640401e-02  -1.3044770108690372e-02  -9.7192302836358949e-03  -1.1655301775730391e-02  -1.4492828416818255e-02  -1.4006222597557865e-02  -1.0456541399902049e-02  -1.3602099163553599e-02  -1.6342233486972425e-02  -1.6452692241033792e-02  -1.4688332842212432e-02  -1.8736980533380253e-02  -1.9325261321968469e-02  -2.1152768331762627e-02  -2.1197177903859742e-02  -9.0241100876060562e-03  -1.9437576803663367e-02  -1.9236095336304646e-02  -1.9952311265344046e-02  -1.8151086296362189e-02  -2.1514102612595658e-02  -2.1789468510560787e-02  -2.0270701618782888e-02  -1.6394216804736978e-02  -1.9070892109133184e-02  -2.0858587779665226e-02  -1.8157437952258240e-02  -1.6115098665287014e-02  -1.8485265553847805e-02  -1.9053450144270543e-02  -1.6482830140572034e-02  -1.8786548586092838e-02  -2.0845967202092478e-02  -2.1322615685506779e-02  -2.0101391531875314e-02  -2.0127024132770930e-02  -1.8995857409065644e-02  -2.1369967912938593e-02  -1.6782540820933344e-02  -8.4184187186220408e-03  -2.1087780743734959e-02  -8.4758392001616709e-03  -1.4354516844295315e-02  -1.7596713252615477e-02  -1.4901660824354323e-02  -1.7738618884287825e-02  -2.0045391784735515e-02  -2.0578115580317920e-02  -1.8825088872735936e-02  -1.6883527238923321e-02  -1.8566427488662548e-02  -1.9317014980468936e-02  -1.0103792058778449e-02  -2.2996627213057796e-02  -2.3390315780246633e-02  -1.7247302110814502e-02  -1.9676076052417037e-02  -1.9161304013501180e-02  -1.7496338237293577e-02  -1.8467282046268550e-02  -2.0868261961566974e-02  -1.9145961215472400e-02  -2.0781206985799324e-02  -2.1269510388609674e-02  -2.2560001107502704e-02  -2.4088899194615127e-02  -2.4699355348413214e-02  -2.0003504515111691e-02  -2.2135606418908674e-02  -2.2334588579643894e-02  -2.2482837963304175e-02  -2.4404805468178484e-02  -2.5476929683589424e-02  -2.2877912934815489e-02  -1.9274356744085841e-02  -1.6857130203738243e-02  -2.4138976976334790e-02  -2.3434740435088662e-02  -2.2380586710923814e-02  -2.5051451984698089e-02  -2.2131703240178550e-02  -2.2112520463193640e-02  -2.3677372319856404e-02  -2.5460940152326965e-02  -2.2726984788610845e-02  -2.2322419267084188e-02  -2.3851685103489985e-02  -2.1028254863803168e-02  -2.3148832001996075e-02  -2.0372148077463549e-02  -2.2761290121779361e-02  -2.4486107919284364e-02  -2.5823664251887899e-02  -2.4380714117508317e-02  -2.1345222789861517e-02  -1.8126883478198245e-02  -2.2930458186095473e-02  -2.3657996270155360e-02  -2.1541718440128980e-02  -2.6790793350052831e-02  -2.6798763309068479e-02  -2.6894409217132688e-02  -2.6905239137304277e-02  -2.3217292942633680e-02  -9.6758138109029890e-03  -7.9432274941306225e-03  -1.9841384965923772e-02  -2.3777593397751429e-02  -2.4168954005897008e-02  -2.2891975522136249e-02  -2.5729873737175141e-02  -2.2650508491578659e-02  -2.2041952779062946e-02  -1.8606430361665923e-02  -1.7574346751714390e-02  -2.2366697215804237e-02  -1.7304828727586048e-02  -8.7953660487624808e-03  -8.8612074384041926e-03  -1.2216589315592559e-02  -2.0196088176005298e-02  -2.2007372374384198e-02  -1.8978915439133093e-02  -2.0131981939031297e-02  -1.8980886130901917e-02  -2.3372666237362671e-02  -2.3196247285439488e-02  -9.2234860432409797e-03  -2.3345475165771044e-02  -1.9418132692831786e-02  -2.0327066735188363e-02  -1.6184160704029962e-02  -2.2038412658597368e-02  -1.6418124091996864e-02  -1.2189565003375740e-02  -2.3603889878721813e-02  -7.6201988375709665e-03  -1.5431810770170007e-02  -2.4905156078206075e-02  -1.6824541265986898e-02  -1.9293224208199403e-02  -1.9812658265001053e-02  -9.4909128636263794e-03  -2.3500836375116397e-02  -2.1049083660315986e-02  -1.9150338425238982e-02  -7.3687531950952486e-03  -2.0643293749289148e-02  -1.9225751906841507e-02  -7.9265775398961683e-03  -1.6002149769834877e-02  -1.8979419451880000e-02  -7.4248816268562279e-03  -1.6269856425713197e-02  -2.1207549192952833e-02  -2.1629127597824226e-02  -1.8274494054450821e-02  -1.5323637348951253e-02  -1.9383943723573729e-02  -2.4005062705134108e-02  -1.6681118948360392e-02  -2.8029719129672569e-02  -2.8117191881328784e-02  -2.8009079492818726e-02  -2.8187036436991952e-02  -2.1123416025807105e-02  -2.3304665401810483e-02  -2.1190838637466063e-02  -2.2555087986199936e-02  -1.9760910699976257e-02  -1.5216325339756667e-02  -2.2756605928010588e-02  -2.1760110865451592e-02  -1.8306243217615738e-02  -1.4302991387673564e-02  -1.5625289912500857e-02  -1.3941252820913828e-02  -2.1738100273259460e-02  -1.4264810466104770e-02  -1.9490977957056635e-02  -1.3852349256772784e-02  -7.5431575241861910e-03  -1.8960700872738556e-02  -1.6109129665291419e-02  -1.7797247001716802e-02  -1.9319581746003914e-02  -1.5390391484509767e-02  -1.4409670261249681e-02  -8.6833187333530196e-03  -2.4088653619893461e-02  -3.1720628500791201e-02  -3.2083132823703488e-02  -3.3966591705908523e-02  -3.6420554338960770e-02  -3.3942238681355735e-02  -3.7015807739828856e-02  -3.2035366438897754e-02  -3.3650141588508119e-02  -3.1992927241128691e-02  -3.3717237825016885e-02  -3.6541026810104946e-02  -3.6323960392530476e-02  -1.6949489040278806e-02  -1.5082341461561052e-02  -1.8224181274746197e-02  -1.5713120995985583e-02  -3.2516235747357805e-02  -3.5922136042017501e-02  -3.6065118208217214e-02  -3.2524508662698647e-02  -4.0857586671178038e-02  -4.6221928181682623e-02  -3.3080170749389237e-02  -3.2977069055281041e-02  -3.7728919979763971e-02  -4.7668439699725049e-02  -5.0091321446746939e-02  -4.9770365231232336e-02  -5.1551398020356909e-02  -5.1634604556932404e-02  -1.7277740181159768e-02  -1.6781143901339137e-02  -1.7288473752727490e-02  -1.6773444550256540e-02  -1.7478816261922270e-02  -1.7013775281577999e-02  -1.8068821019965615e-02  -5.1429754245686223e-02  -5.1681669238665191e-02  -4.9924764238738595e-02  -4.8279973532459580e-02  -1.9248846556521121e-02  -1.8555267997612486e-02  -1.7784909623894719e-02  -1.7357021178563432e-02  -1.8828190664652578e-02  -1.7699340473476662e-02  -2.0410324924973300e-02  -1.5867979946800871e-02  -4.8365121752955181e-02  -4.7312144748718511e-02  -1.7807613676790457e-02  -1.5990408988453404e-02  -1.7835795549255636e-02  -4.1102708748122704e-02  -4.5986904284296262e-02  -4.8310607355803614e-02  -5.0457085568969655e-02  -5.1314480413792878e-02  -5.1601197923049860e-02  -5.0972113343265950e-02  -5.1312500496607009e-02  -5.1262028341612746e-02  -4.9828057742470407e-02  -4.1009975809286989e-02  -4.6221031643366342e-02  -4.8331255238624672e-02  -5.0486639354110657e-02  -4.9286098766114124e-02  -5.1371150584834289e-02  -5.1682452686496981e-02  -5.1533055222417294e-02  -5.1386854797069829e-02  -5.0181233227183653e-02  -3.4306062739003905e-02  -4.0931518644318654e-02  -4.6294907089930518e-02  -4.7775361659786318e-02  -5.0279291015663738e-02  -4.9932800096511958e-02  -5.1736159134188366e-02  -5.1827587214893583e-02  -5.1689429242434540e-02  -5.1742058891913530e-02  -3.1865974422459718e-02  -3.2284313753309660e-02  -3.3731538658414717e-02  -3.3773008588404978e-02  -5.0997423798147527e-02  -4.9926770053987692e-02  -4.9817714904307808e-02  -4.9829008519536942e-02  -4.9665183094847604e-02  -4.9952132261656658e-02  -1.8124287856032508e-02  -4.9413108931881132e-02  -5.1223559484109303e-02  -4.9524988623563429e-02  -4.9126020841201400e-02  -5.0616089741160407e-02  -5.0513248384138211e-02  -3.4292846470149935e-02  -4.6026997584807550e-02  -4.6002989322617899e-02  -1.4849390261732463e-02  -1.3843523286570805e-02  -1.4859990785179548e-02  -4.5286116788783318e-02  -4.6111307086882408e-02  -4.4485634731128258e-02  -4.3814440072279519e-02  -4.7788968631987581e-02  -4.9397233131977920e-02  -4.7347127589183219e-02  -4.8861283606053976e-02  -4.5910144904153766e-02  -4.8749266893535363e-02  -4.5131560174325985e-02  -4.7502062112763595e-02  -4.3914903574932634e-02  -4.5524452048600568e-02  -4.5921799733127926e-02  -4.8587600314690144e-02  -4.5031258228617393e-02  -4.7119512001339028e-02  -4.3766925762953962e-02  -4.5541462542376190e-02  -4.2476714911838069e-02  -4.4213392302588729e-02  -4.1469536830551053e-02  -4.3300852872081241e-02  -4.0771881046652178e-02  -4.2885301820245608e-02  -4.0474419112888314e-02  -4.3038298427922971e-02  -4.2450933347499456e-02  -4.4088696419738817e-02  -4.1341045169038748e-02  -4.3129866551958169e-02  -4.0595054766201712e-02  -4.2692017557411123e-02  -4.0246421970807751e-02  -4.2849794065243335e-02  -4.5581242043889393e-02  -4.5443236136162413e-02  -4.9152427024073492e-02  -4.8962530446886615e-02  -4.5267555920117386e-02  -4.4862638636343884e-02  -4.0899541438409438e-02  -4.3771210528219515e-02  -4.1601635189025959e-02  -4.4861893827263556e-02  -4.2415039732224741e-02  -4.0645466515988271e-02  -4.3536931692472594e-02  -4.1256623881826507e-02  -4.4570185613825836e-02  -4.2008594743695699e-02  -5.0122800814256373e-02  -4.6806738140606527e-02  -4.6063224187404689e-02  -4.4075155536695394e-02  -4.5483625044643892e-02  -4.4225811648953048e-02  -4.5665534177969647e-02  -4.2257555214954848e-02  -3.9491853040266992e-02  -4.2505626046578010e-02  -3.9536202649362279e-02  -4.3000516502174978e-02  -3.5445340882126475e-02  -4.3142007478694955e-02  -4.4556898623723105e-02  -4.0892386420254931e-02  -3.9711510791831162e-02  -3.5255981962282731e-02  -4.4394634062462530e-02  -3.9947725133330655e-02  -4.5723835972166303e-02  -3.9094089036916788e-02  -4.5833339984573604e-02  -3.8043182359665834e-02  -3.8146747267191861e-02  -3.7308614147949934e-02  -4.3375722618785320e-02  -3.8541784909774252e-02  -4.2960847574145221e-02  -3.0731073639778561e-02  -4.9955353039386620e-02  -1.1710174042252256e-02  -4.6032237297694532e-02  -4.9990658978109899e-02  -3.7473105527662205e-02  -3.7105747013845516e-02  -4.1813204208724794e-02  -3.7456122189701478e-02  -4.5599785057384316e-02  -4.5559491253345685e-02  -4.4951542206344806e-02  -4.8425851941325489e-02  -4.6618269002383500e-02  -4.7536219107424046e-02  -4.6060608705419552e-02  -4.4202035370059720e-02  -4.3164714416557962e-02  -4.6138220998952227e-02  -4.4478106291486033e-02  -4.2124034914215444e-02  -4.2867900715794792e-02  -4.1161124367284307e-02  -4.1913252879321176e-02  -4.0747185531730158e-02  -4.1392156146154421e-02  -4.0667888427337900e-02  -4.1159732652606570e-02  -3.7840244482500750e-02  -4.2557350666713283e-02  -4.3508738556321105e-02  -4.2385025245401338e-02  -3.1071551030211926e-02  -4.1215422356937419e-02  -3.7691616907347764e-02  -3.8515089643324917e-02  -3.6583721407685628e-02  -1.0680690355326639e-02  -1.2456499587442587e-02  -1.1789692317289775e-02  -4.5161041328895410e-02  -3.8750284489493365e-02  -4.8988076947512303e-02  -4.3850175206505679e-02  -4.6998209177246814e-02  -3.2681305993877273e-02  -3.3341074883549635e-02  -3.4283720587721112e-02  -4.0013733658485040e-02  -4.3545342056817496e-02  -4.6555692206681647e-02  -4.4859313575640943e-02  -4.0100337149909682e-02  -4.2622485823568673e-02  -4.3230239480700608e-02  -4.2469481516238416e-02  -4.0620641964325098e-02  -4.1721184083931974e-02  -3.8239739454663892e-02  -4.0822476098672025e-02  -4.1224730265511052e-02  -4.1687251580385255e-02  -3.9825835943585360e-02  -4.2257169526738768e-02  -3.8683612407966354e-02  -4.2427251678653417e-02  -4.2910958716385603e-02  -4.4361548913715160e-02  -4.2357018596271008e-02  -4.5838462309817279e-02  -4.1665608199570908e-02  -4.6714186250910929e-02  -4.0017000501598177e-02  -4.5110328141830303e-02  -4.2110884629814292e-02  -4.4057882098820673e-02  -4.1201133125672758e-02  -4.8712517967773102e-02  -4.7265247326337065e-02  -3.7330228821803521e-02  -3.4576562932792487e-02  -4.2143467932294301e-02  -4.1243744386907477e-02  -4.7446717957205953e-02  -4.0325405490253763e-02  -4.7169037696015513e-02  -3.6453355462488554e-02  -3.8367024673305883e-02  -4.1713550831824840e-02  -4.7263484692588384e-02  -3.5492382473042823e-02  -4.2166439151183441e-02  -3.9613001974413947e-02  -3.6115555041761914e-02  -3.6371275327603807e-02  -3.8362859991304309e-02  -4.2516194820841229e-02  -3.7652494533522290e-02  -4.0942522239820485e-02  -3.99320420763