<?xml version="1.0"?>
<VTKFile type="UnstructuredGrid"  version="0.1"  >
<UnstructuredGrid>
<Piece  NumberOfPoints="1297" NumberOfCells="2496">
<Points>
<DataArray  type="Float64"  NumberOfComponents="3"  format="ascii">0 0 0  0 1 0  1 1 0  1 0 0  1.1 -0.1 0  -0.1 -0.1 0  1.1 1.1 0  -0.1 1.1 0  0.2975009959248798 0.6636147284041208 0  0.2982364947250943 0.336902315463362 0  0.7034304786143925 0.3359096115381973 0  0.703432575894716 0.6643408729688701 0  0.5005069992909372 0.5001725477039681 0  0 0.9499999999997918 0  0 0.8999999999995836 0  0 0.8499999999996529 0  0 0.7999999999999998 0  0 0.7500000000003466 0  0 0.7000000000006934 0  0 0.6500000000010401 0  0 0.6000000000013869 0  0 0.5500000000017335 0  0 0.5000000000020587 0  0 0.4500000000018723 0  0 0.4000000000016644 0  0 0.3500000000014564 0  0 0.3000000000012483 0  0 0.2500000000010403 0  0 0.2000000000008322 0  0 0.1500000000006241 0  0 0.100000000000416 0  0 0.05000000000020799 0  0.04999999999989965 0 0  0.09999999999981467 0 0  0.1499999999997036 0 0  0.1999999999995579 0 0  0.2499999999994121 0 0  0.2999999999992664 0 0  0.3499999999991206 0 0  0.3999999999989749 0 0  0.4499999999988292 0 0  0.4999999999986943 0 0  0.5499999999988151 0 0  0.5999999999989468 0 0  0.6499999999990784 0 0  0.69999999999921 0 0  0.7499999999993417 0 0  0.7999999999994734 0 0  0.8499999999996051 0 0  0.8999999999997368 0 0  0.9499999999998684 0 0  1 0.04999999999989965 0  1 0.09999999999981467 0  1 0.1499999999997036 0  1 0.1999999999995579 0  1 0.2499999999994121 0  1 0.2999999999992664 0  1 0.3499999999991206 0  1 0.3999999999989749 0  1 0.4499999999988292 0  1 0.4999999999986943 0  1 0.5499999999988151 0  1 0.5999999999989468 0  1 0.6499999999990784 0  1 0.69999999999921 0  1 0.7499999999993417 0  1 0.7999999999994734 0  1 0.8499999999996051 0  1 0.8999999999997368 0  1 0.9499999999998684 0  0.9499999999997918 1 0  0.8999999999995836 1 0  0.8499999999996529 1 0  0.7999999999999998 1 0  0.7500000000003466 1 0  0.7000000000006934 1 0  0.6500000000010401 1 0  0.6000000000013869 1 0  0.5500000000017335 1 0  0.5000000000020587 1 0  0.4500000000018723 1 0  0.4000000000016644 1 0  0.3500000000014564 1 0  0.3000000000012483 1 0  0.2500000000010403 1 0  0.2000000000008322 1 0  0.1500000000006241 1 0  0.100000000000416 1 0  0.05000000000020799 1 0  -0.1 1.05000000000004 0  -0.1 1.000000000000079 0  -0.1 0.9500000000001624 0  -0.1 0.9000000000003032 0  -0.1 0.850000000000444 0  -0.1 0.8000000000005848 0  -0.1 0.7500000000007256 0  -0.1 0.7000000000008665 0  -0.1 0.6500000000010508 0  -0.1 0.6000000000012352 0  -0.1 0.5500000000014196 0  -0.1 0.500000000001539 0  -0.1 0.4500000000014195 0  -0.1 0.4000000000013 0  -0.1 0.3500000000011588 0  -0.1 0.3000000000010178 0  -0.1 0.2500000000008986 0  -0.1 0.2000000000007579 0  -0.1 0.1500000000006174 0  -0.1 0.1000000000005272 0  -0.1 0.05000000000040083 0  -0.1 2.671196597248127e-13 0  -0.1 -0.0499999999998666 0  -0.0500000000000906 -0.1 0  -1.730560139634463e-13 -0.1 0  0.04999999999975802 -0.1 0  0.09999999999961506 -0.1 0  0.1499999999994613 -0.1 0  0.199999999999302 -0.1 0  0.2499999999991446 -0.1 0  0.2999999999990088 -0.1 0  0.3499999999988296 -0.1 0  0.3999999999986936 -0.1 0  0.4499999999985143 -0.1 0  0.4999999999984002 -0.1 0  0.5499999999985247 -0.1 0  0.5999999999986493 -0.1 0  0.6499999999987955 -0.1 0  0.6999999999989417 -0.1 0  0.7499999999990659 -0.1 0  0.7999999999992116 -0.1 0  0.8499999999993573 -0.1 0  0.8999999999994526 -0.1 0  0.949999999999584 -0.1 0  0.9999999999997226 -0.1 0  1.049999999999861 -0.1 0  1.1 -0.0500000000000906 0  1.1 -1.730560139634463e-13 0  1.1 0.04999999999975802 0  1.1 0.09999999999961506 0  1.1 0.1499999999994613 0  1.1 0.199999999999302 0  1.1 0.2499999999991446 0  1.1 0.2999999999990088 0  1.1 0.3499999999988296 0  1.1 0.3999999999986936 0  1.1 0.4499999999985143 0  1.1 0.4999999999984002 0  1.1 0.5499999999985247 0  1.1 0.5999999999986493 0  1.1 0.6499999999987955 0  1.1 0.6999999999989417 0  1.1 0.7499999999990659 0  1.1 0.7999999999992116 0  1.1 0.8499999999993573 0  1.1 0.8999999999994526 0  1.1 0.949999999999584 0  1.1 0.9999999999997226 0  1.1 1.049999999999861 0  1.05000000000004 1.1 0  1.000000000000079 1.1 0  0.9500000000001624 1.1 0  0.9000000000003032 1.1 0  0.850000000000444 1.1 0  0.8000000000005848 1.1 0  0.7500000000007256 1.1 0  0.7000000000008665 1.1 0  0.6500000000010508 1.1 0  0.6000000000012352 1.1 0  0.5500000000014196 1.1 0  0.500000000001539 1.1 0  0.4500000000014195 1.1 0  0.4000000000013 1.1 0  0.3500000000011588 1.1 0  0.3000000000010178 1.1 0  0.2500000000008986 1.1 0  0.2000000000007579 1.1 0  0.1500000000006174 1.1 0  0.1000000000005272 1.1 0  0.05000000000040083 1.1 0  2.671196597248127e-13 1.1 0  -0.0499999999998666 1.1 0  0.2879098234088012 0.6509081020393472 0  0.2783439747722038 0.6337898464089399 0  0.2702593264391828 0.6142078989218577 0  0.2638669941482543 0.5928383808053644 0  0.259096257259735 0.5704038205780898 0  0.2558125001242926 0.5472724701576374 0  0.253908437947708 0.5237370314931373 0  0.2533256296981816 0.5000607569205376 0  0.2540338735727188 0.476349441552795 0  0.2560606976423225 0.4528187145083351 0  0.2594825050285155 0.4297259807969175 0  0.2643863448865194 0.4073402789688912 0  0.2709126848034309 0.3860498277785701 0  0.2791047012490984 0.3665108605889398 0  0.2887229622440758 0.3494945989429279 0  0.3096752607060738 0.3259705496369341 0  0.3251136398465494 0.3146872178150324 0  0.343261431758315 0.3044472607865578 0  0.3632696517154429 0.2956108713511679 0  0.3845929376877142 0.2882326109735918 0  0.4068301347550825 0.2822696828482835 0  0.4296919760653417 0.2776654539525595 0  0.452998080171887 0.2743601566765655 0  0.4765849845551062 0.2723421447052333 0  0.5003059354362573 0.27160352983173 0  0.5240437980232004 0.2721419689113529 0  0.5476632255455446 0.273960599023379 0  0.5710350497843947 0.2770794483925775 0  0.593966807986115 0.2815246145511199 0  0.6162904165911166 0.2873429825818857 0  0.6377440768457429 0.294593595526159 0  0.6579181982110913 0.3033570375404747 0  0.6762577185476981 0.3135792682157401 0  0.6918229420558701 0.3248766398448562 0  0.7131246972048201 0.3487671940763087 0  0.7227135447344887 0.3658256139943434 0  0.7308949177496314 0.3855503939451783 0  0.7373774936222335 0.4070304635416071 0  0.7422225803753124 0.4295559602369303 0  0.7455695378663233 0.4527418617190203 0  0.7475353717288964 0.4763243356303828 0  0.7481881697959744 0.5000975598639835 0  0.7475478291363189 0.5238795128315747 0  0.7455899717289345 0.547498936092188 0  0.742257803461718 0.5706895110096232 0  0.7374024047079253 0.593220664253537 0  0.7309383385161201 0.6146600933848416 0  0.7227611485350626 0.6343921322723489 0  0.7131630105619621 0.6514562731251334 0  0.6918219413991491 0.6753966808342738 0  0.6762305552884094 0.6867328868902496 0  0.657923791159317 0.696986289761057 0  0.6377648573299908 0.7057627329516469 0  0.6163241773134358 0.7130368710948289 0  0.5939963739202214 0.7188770214598974 0  0.5710358178721512 0.7233516389514225 0  0.5476523362396799 0.7264891357519732 0  0.5240163571901831 0.7283250761303849 0  0.5002606694184213 0.7288802030870251 0  0.4765190353473274 0.7281618577470345 0  0.4529229651739151 0.7261659136061003 0  0.4295916384195204 0.722889359048372 0  0.4066851285891891 0.7183026801175697 0  0.3844060497378999 0.7123756298552421 0  0.362997865868271 0.7050171903023591 0  0.3428684782601575 0.6961818129072322 0  0.3245985021503286 0.6859259363268262 0  0.3090319621691483 0.6746062759546193 0  0.3747877360304117 0.3167345550478819 0  0.2811661992577876 0.4411063267849938 0  0.3745811007723595 0.6837892751793864 0  0.2808871604686861 0.5590650127520272 0  0.7186420900462877 0.5818435325125144 0  0.6043924402010137 0.6912315959481449 0  0.6253052899816436 0.3152669991338858 0  0.7219513908103558 0.4402295236107338 0  0.7244985944494617 0.5114225297554125 0  0.5582099986957225 0.3004800975619564 0  0.4428564305918726 0.3030828189039356 0  0.4414122315512732 0.6977377980334742 0  0.5355382048164066 0.7009338298016683 0  0.27759809111684 0.4881922512792999 0  0.2877051032956344 0.3960303550129455 0  0.4888075749338277 0.3019743447088518 0  0.2926333056156384 0.6026736580102479 0  0.7080463812906127 0.3936891476710341 0  0.4885553324233007 0.7018931912665229 0  0.6473372200020723 0.6780370971582277 0  0.3339021296954958 0.3332321305156329 0  0.667665744240253 0.3337898518203538 0  0.3340159397504625 0.6696033215402517 0  0.7054652149865348 0.6270463861186432 0  0.3010623816187513 0.3558099010635984 0  0.3022881497651737 0.6436231005372133 0  0.6851758737389779 0.6625086829295515 0  0.7010588231580922 0.3547122654444801 0  0.3536749108015177 0.6770350703208823 0  0.3643156438703378 0.6577584389580242 0  0.3857683366887052 0.6624458403963622 0  0.3743267099274245 0.636994200439373 0  0.3971745653179271 0.6404511006852835 0  0.3842935613327922 0.6129087810493585 0  0.4120499216773643 0.6156781601453709 0  0.396158236837471 0.58328258526412 0  0.3572759615455382 0.6091199929081189 0  0.430286897550792 0.584775068104715 0  0.4103696287395028 0.5481898788681935 0  0.3703774979493566 0.5528582274011009 0  0.3873148397839345 0.5143169792236406 0  0.3492766660459479 0.5162153790367561 0  0.3625402259393902 0.482098369932339 0  0.4024979372131742 0.4766527486118196 0  0.381411319539662 0.444391839745563 0  0.4175811449414227 0.4383684851525387 0  0.3974007786915351 0.4078498249993371 0  0.4303928465634431 0.3947871710323377 0  0.3634682309540335 0.4106280188485887 0  0.4061806071986868 0.3743210390274261 0  0.4392866354469284 0.6192119267904 0  0.4653149303169861 0.5936350866318635 0  0.4838592167617114 0.6210212967948937 0  0.5026426841680371 0.5956038554698017 0  0.5205018055192638 0.6212581958835525 0  0.5390816738666241 0.5957746670359596 0  0.5565828690913387 0.6211465736129007 0  0.5749110081752731 0.5959462236200233 0  0.5927877064262532 0.6231455914222312 0  0.6100937730030592 0.5889489214932755 0  0.5941302362685289 0.
[...]
<PointData  Scalars="state"> 
<DataArray  type="Float64"  Name="state"  format="ascii">0.0000000000000000e+00  0.0000000000000000e+00  0.0000000000000000e+00  0.0000000000000000e+00  0.0000000000000000e+00  0.0000000000000000e+00  0.0000000000000000e+00  0.0000000000000000e+00  -3.2139227188582267e-02  -3.2099426440422067e-02  -3.2297826646398631e-02  -3.2311648444396164e-02  -6.9315244054949134e-03  0.0000000000000000e+00  0.0000000000000000e+00  0.0000000000000000e+00  0.0000000000000000e+00  0.0000000000000000e+00  0.0000000000000000e+00  0.0000000000000000e+00  0.0000000000000000e+00  0.0000000000000000e+00  0.0000000000000000e+00  0.0000000000000000e+00  0.0000000000000000e+00  0.0000000000000000e+00  0.0000000000000000e+00  0.0000000000000000e+00  0.0000000000000000e+00  0.0000000000000000e+00  0.0000000000000000e+00  0.0000000000000000e+00  0.0000000000000000e+00  0.0000000000000000e+00  0.0000000000000000e+00  0.0000000000000000e+00  0.0000000000000000e+00  0.0000000000000000e+00  0.0000000000000000e+00  0.0000000000000000e+00  0.0000000000000000e+00  0.0000000000000000e+00  0.0000000000000000e+00  0.0000000000000000e+00  0.0000000000000000e+00  0.0000000000000000e+00  0.0000000000000000e+00  0.0000000000000000e+00  0.0000000000000000e+00  0.0000000000000000e+00  0.0000000000000000e+00  0.0000000000000000e+00  0.0000000000000000e+00  0.0000000000000000e+00  0.0000000000000000e+00  0.0000000000000000e+00  0.0000000000000000e+00  0.0000000000000000e+00  0.0000000000000000e+00  0.0000000000000000e+00  0.0000000000000000e+00  0.0000000000000000e+00  0.0000000000000000e+00  0.0000000000000000e+00  0.0000000000000000e+00  0.0000000000000000e+00  0.0000000000000000e+00  0.0000000000000000e+00  0.0000000000000000e+00  0.0000000000000000e+00  0.0000000000000000e+00  0.0000000000000000e+00  0.0000000000000000e+00  0.0000000000000000e+00  0.0000000000000000e+00  0.0000000000000000e+00  0.0000000000000000e+00  0.0000000000000000e+00  0.0000000000000000e+00  0.0000000000000000e+00  0.0000000000000000e+00  0.0000000000000000e+00  0.0000000000000000e+00  0.0000000000000000e+00  0.0000000000000000e+00  0.0000000000000000e+00  0.0000000000000000e+00  0.0000000000000000e+00  0.0000000000000000e+00  0.0000000000000000e+00  0.0000000000000000e+00  0.0000000000000000e+00  0.0000000000000000e+00  0.0000000000000000e+00  0.0000000000000000e+00  0.0000000000000000e+00  0.0000000000000000e+00  0.0000000000000000e+00  0.0000000000000000e+00  0.0000000000000000e+00  0.0000000000000000e+00  0.0000000000000000e+00  0.0000000000000000e+00  0.0000000000000000e+00  0.0000000000000000e+00  0.0000000000000000e+00  0.0000000000000000e+00  0.0000000000000000e+00  0.0000000000000000e+00  0.0000000000000000e+00  0.0000000000000000e+00  0.0000000000000000e+00  0.0000000000000000e+00  0.0000000000000000e+00  0.0000000000000000e+00  0.0000000000000000e+00  0.0000000000000000e+00  0.0000000000000000e+00  0.0000000000000000e+00  0.0000000000000000e+00  0.0000000000000000e+00  0.0000000000000000e+00  0.0000000000000000e+00  0.0000000000000000e+00  0.0000000000000000e+00  0.0000000000000000e+00  0.0000000000000000e+00  0.0000000000000000e+00  0.0000000000000000e+00  0.0000000000000000e+00  0.0000000000000000e+00  0.0000000000000000e+00  0.0000000000000000e+00  0.0000000000000000e+00  0.0000000000000000e+00  0.0000000000000000e+00  0.0000000000000000e+00  0.0000000000000000e+00  0.0000000000000000e+00  0.0000000000000000e+00  0.0000000000000000e+00  0.0000000000000000e+00  0.0000000000000000e+00  0.0000000000000000e+00  0.0000000000000000e+00  0.0000000000000000e+00  0.0000000000000000e+00  0.0000000000000000e+00  0.0000000000000000e+00  0.0000000000000000e+00  0.0000000000000000e+00  0.0000000000000000e+00  0.0000000000000000e+00  0.0000000000000000e+00  0.0000000000000000e+00  0.0000000000000000e+00  0.0000000000000000e+00  0.0000000000000000e+00  0.0000000000000000e+00  0.0000000000000000e+00  0.0000000000000000e+00  0.0000000000000000e+00  0.0000000000000000e+00  0.0000000000000000e+00  0.0000000000000000e+00  0.0000000000000000e+00  0.0000000000000000e+00  0.0000000000000000e+00  0.0000000000000000e+00  0.0000000000000000e+00  0.0000000000000000e+00  0.0000000000000000e+00  0.0000000000000000e+00  0.0000000000000000e+00  0.0000000000000000e+00  0.0000000000000000e+00  0.0000000000000000e+00  0.0000000000000000e+00  0.0000000000000000e+00  0.0000000000000000e+00  0.0000000000000000e+00  -3.1224371373842270e-02  -3.0474361759782749e-02  -2.9586867734323757e-02  -2.8700532410552704e-02  -2.7955714029872507e-02  -2.7397096229035526e-02  -2.7010176777703281e-02  -2.6993428438790806e-02  -2.7065966571622614e-02  -2.7446394015416185e-02  -2.8016774006822426e-02  -2.8727420923602417e-02  -2.9497871277524547e-02  -3.0343799044127498e-02  -3.1098275058897919e-02  -3.1573087428589101e-02  -3.1046676875438616e-02  -3.0434023210997231e-02  -2.9804833191649956e-02  -2.9215047829645808e-02  -2.8598861772835840e-02  -2.8072506663689292e-02  -2.7729819336476710e-02  -2.7457534056144449e-02  -2.7382243955183079e-02  -2.7459176409699679e-02  -2.7710659249886877e-02  -2.8121514079671082e-02  -2.8619004394023269e-02  -2.9312327048048255e-02  -3.0005563483602480e-02  -3.0627937560500161e-02  -3.1245322023629320e-02  -3.1759418129982835e-02  -3.1450441205984087e-02  -3.0600482602494899e-02  -2.9709985911717179e-02  -2.8798673575689198e-02  -2.8051985381367307e-02  -2.7481556295724817e-02  -2.7151067015516190e-02  -2.7013393030575528e-02  -2.7136174783598973e-02  -2.7545169499528014e-02  -2.8111460295087043e-02  -2.8819261714050623e-02  -2.9754739588227441e-02  -3.0654519900185032e-02  -3.1499073019273981e-02  -3.1742554487581502e-02  -3.1223783733429971e-02  -3.0662974113907449e-02  -3.0014330496691378e-02  -2.9307657281867069e-02  -2.8592176442506004e-02  -2.8095059365813909e-02  -2.7647270657919328e-02  -2.7376833556762636e-02  -2.7318460956525209e-02  -2.7424947331512732e-02  -2.7663985592990079e-02  -2.7967502034334537e-02  -2.8512633469221352e-02  -2.9153073491106397e-02  -2.9766920296714034e-02  -3.0438039488668547e-02  -3.1073434981967199e-02  -3.1596052692007534e-02  -2.4341143381861274e-02  -2.3049341439118902e-02  -2.4327295738436273e-02  -2.3040417608432159e-02  -2.4206136095731919e-02  -2.3767411435136072e-02  -2.4483774165847284e-02  -2.3325465883740865e-02  -2.2404356620179092e-02  -2.2604164672591801e-02  -2.2213913845286225e-02  -2.2227305037381195e-02  -2.1978339201066521e-02  -2.2291575860876000e-02  -2.5055441531000287e-02  -2.1226521168334320e-02  -2.4113893806936189e-02  -2.4463631368276197e-02  -2.1744468502826530e-02  -2.5496930956814143e-02  -2.6128001052852238e-02  -2.6034090124853866e-02  -2.6415084241352967e-02  -2.6203860345547073e-02  -2.7537037317611663e-02  -2.7011902445218797e-02  -2.7889196781820946e-02  -2.7773725706361076e-02  -2.5297664491956952e-02  -2.1928006237194271e-02  -2.0794634646072542e-02  -1.9072659273182184e-02  -1.7810629998308777e-02  -1.6245864955060502e-02  -1.4726904460058999e-02  -1.3280626014678987e-02  -1.8006224772511292e-02  -1.1451389347713918e-02  -1.0517043568797286e-02  -1.3548041847884051e-02  -1.1181406627148328e-02  -1.4458977968096087e-02  -1.3297956299420391e-02  -1.0303838443642011e-02  -1.2778037777562987e-02  -1.0729361083522610e-02  -1.3842681411304347e-02  -1.3020798059651480e-02  -1.6208837983631947e-02  -1.6126559054716206e-02  -1.3758167918852831e-02  -1.0885950543319435e-02  -1.2898256842391995e-02  -1.0687026899875031e-02  -1.3019582203729833e-02  -1.1198973683471147e-02  -1.3855753909564448e-02  -1.2481485610644792e-02  -1.5598048373822013e-02  -1.3972468139431470e-02  -1.1051779140970440e-02  -1.3555108768319751e-02  -1.1123753805401544e-02  -1.6492483700601499e-02  -1.6713456446474536e-02  -1.7412474113257755e-02  -1.6661046415343411e-02  -1.6554977932407469e-02  -1.7726213162383913e-02  -1.5409168481772499e-02  -1.2605514079773445e-02  -1.9829647314485343e-02  -1.8129157159083014e-02  -1.6178576852979756e-02  -1.6938153337650089e-02  -1.5690786574554191e-02  -1.2167862994121979e-02  -1.5994217141331934e-02  -1.3064517550971287e-02  -9.7649315394597522e-03  -1.1704504427959433e-02  -1.4532717395388242e-02  -1.4066614371323855e-02  -1.0475825261488712e-02  -1.3628777532899093e-02  -1.6457715268661952e-02  -1.6533557717911009e-02  -1.4671672543579069e-02  -1.8946610315016821e-02  -1.9475701169063924e-02  -2.1479713794846304e-02  -2.1548708979135411e-02  -9.0331872385763130e-03  -1.9505343455679145e-02  -1.9445622504103647e-02  -1.9854248741434710e-02  -1.7973401211881616e-02  -2.1763311020546208e-02  -2.2177226856588687e-02  -2.0567739362486050e-02  -1.6322447891510945e-02  -1.8875137800725382e-02  -2.0614994118924337e-02  -1.8032573838478193e-02  -1.6036221142577207e-02  -1.8524346047273006e-02  -1.9232421950194454e-02  -1.6308271190019250e-02  -1.8604828826189988e-02  -2.1016695480318020e-02  -2.1655151049059053e-02  -2.0376911390318133e-02  -1.9916201451735269e-02  -1.8948254523110233e-02  -2.0993245444403372e-02  -1.6789092213710478e-02  -8.4542268834692132e-03  -2.1083285838127901e-02  -8.4893147153780463e-03  -1.4252121086313213e-02  -1.7377615358658303e-02  -1.4779849381734310e-02  -1.7542542779316873e-02  -1.9718144215468671e-02  -2.0291512947616108e-02  -1.8716240045652477e-02  -1.7002018943625359e-02  -1.8679905253137341e-02  -1.9019869819492479e-02  -1.0090313788963559e-02  -2.3492381643883051e-02  -2.3857712721123896e-02  -1.7406323709572600e-02  -1.9895584700888262e-02  -1.9372261317308209e-02  -1.7604121068350364e-02  -1.8463417741416240e-02  -2.1034740272229173e-02  -1.9258819461274761e-02  -2.1080875495695765e-02  -2.1329937128631613e-02  -2.3003030129956279e-02  -2.4677271236214070e-02  -2.5163600110529538e-02  -1.9650008333779539e-02  -2.1773542619003796e-02  -2.1995479067233991e-02  -2.2927464374277392e-02  -2.5040819961797637e-02  -2.6046491504816891e-02  -2.2744840470230194e-02  -1.9212763398619444e-02  -1.6889049680299032e-02  -2.4412895107048558e-02  -2.3464000582842818e-02  -2.2265848093557854e-02  -2.5517418512468505e-02  -2.2012600938380998e-02  -2.1782158676201265e-02  -2.3688373278104531e-02  -2.6018857805183492e-02  -2.3091755636224225e-02  -2.1941680455442550e-02  -2.3841492661708583e-02  -2.0978980558608726e-02  -2.3015886598066075e-02  -2.0409073608146411e-02  -2.2499163356353710e-02  -2.4737541696727931e-02  -2.6561385859047083e-02  -2.5012926926912506e-02  -2.1477448084963421e-02  -1.7956831448094797e-02  -2.3406733707968135e-02  -2.3686968022421775e-02  -2.1826291388725685e-02  -2.7712511616415317e-02  -2.7723168606102015e-02  -2.7783025675142597e-02  -2.7858707232048533e-02  -2.2982286770127296e-02  -9.7083228536984020e-03  -7.9913455827964851e-03  -1.9551154398416891e-02  -2.3710835537468920e-02  -2.4124849996247998e-02  -2.3235370239639331e-02  -2.6352258778944943e-02  -2.2287450196790008e-02  -2.2368427676234551e-02  -1.8432753392622857e-02  -1.7584666131061241e-02  -2.1970977823027097e-02  -1.7071680206992498e-02  -8.7929252757913239e-03  -8.8888784451195673e-03  -1.2194556853099199e-02  -2.0479663133137815e-02  -2.2324892253085694e-02  -1.8789471001267589e-02  -2.0159581800284692e-02  -1.8844762436964861e-02  -2.2812747656466192e-02  -2.2698443906135044e-02  -9.2606525264198290e-03  -2.3786110684181027e-02  -1.9268875394766981e-02  -2.0376049224443311e-02  -1.6233432580981633e-02  -2.2145173076990370e-02  -1.6390657100468133e-02  -1.2136327879754133e-02  -2.3173461599563960e-02  -7.6583326446434787e-03  -1.5479193941540481e-02  -2.5594040874846718e-02  -1.6795130310593768e-02  -1.9136793027029662e-02  -1.9737456835786576e-02  -9.5335398381115495e-03  -2.3070444352923446e-02  -2.1205106329350357e-02  -1.8936388907466361e-02  -7.4011182003378582e-03  -2.0490607549129736e-02  -1.9419687446443363e-02  -7.9723477983631528e-03  -1.5912092804399942e-02  -1.8781616183097743e-02  -7.4524770245242653e-03  -1.6189140868897781e-02  -2.1104522427924901e-02  -2.1802095639262196e-02  -1.8400489596208967e-02  -1.5275464396355815e-02  -1.9276889344682864e-02  -2.3542967126242108e-02  -1.6659890083921085e-02  -2.9121883641817298e-02  -2.9236365530482960e-02  -2.9113479655736407e-02  -2.9300556647130882e-02  -2.1332339987494203e-02  -2.3796124487163985e-02  -2.0982861473393278e-02  -2.2699058520335876e-02  -1.9654401260359788e-02  -1.5262702459419105e-02  -2.3213890322158558e-02  -2.2039822460420622e-02  -1.8482404506488834e-02  -1.4311794178409068e-02  -1.5581355536927485e-02  -1.3935141513884985e-02  -2.1694530332405936e-02  -1.4267808281959275e-02  -1.9533662903157129e-02  -1.3790683026239994e-02  -7.5867775979492425e-03  -1.8882486805234577e-02  -1.6134795415288734e-02  -1.7846430356300236e-02  -1.9093174456315008e-02  -1.5226557594516256e-02  -1.4420205336991549e-02  -8.6958266370143859e-03  -2.4650576503101637e-02  -3.1709987146031834e-02  -3.2116516129874144e-02  -3.4169068525273245e-02  -3.6801283147890947e-02  -3.4155068347036861e-02  -3.7420713581503368e-02  -3.2037099952729353e-02  -3.3806884825972411e-02  -3.1990793519727653e-02  -3.3901740232746808e-02  -3.6948312070995137e-02  -3.6700025927806440e-02  -1.6965636533328741e-02  -1.5100340231749807e-02  -1.8235012130951377e-02  -1.5731448603423837e-02  -3.1810085330981064e-02  -3.5716889329308894e-02  -3.5895032093648548e-02  -3.1835981636666941e-02  -4.0697582497013940e-02  -4.5633035411609027e-02  -3.2494542425863283e-02  -3.2344896293145346e-02  -3.7569432516279845e-02  -4.6867708402352416e-02  -4.9338226710096598e-02  -4.9193778200238743e-02  -5.0912701696336111e-02  -5.1169994381551537e-02  -1.7955107921401741e-02  -1.7425549826389861e-02  -1.7950908660712042e-02  -1.7424097004416647e-02  -1.7194174108101968e-02  -1.6746024937927425e-02  -1.7786679072968496e-02  -5.0941152249089044e-02  -5.1411054036618227e-02  -4.9049620224891725e-02  -4.7336881561575402e-02  -1.8775026009186332e-02  -1.8128392805995649e-02  -1.7390759765602289e-02  -1.6945303586536831e-02  -1.8375558996448372e-02  -1.7289706532785342e-02  -1.9915061249446860e-02  -1.6183566824856773e-02  -4.7439732839241598e-02  -4.6316517274044476e-02  -1.8147849404520567e-02  -1.6301251177905107e-02  -1.8174841726164837e-02  -4.1166987892458540e-02  -4.5450286819424777e-02  -4.7887832466579822e-02  -4.9840398092493646e-02  -5.0888702246874827e-02  -5.1035506029508480e-02  -5.0232978535685549e-02  -5.0954652987401185e-02  -5.1074249849285186e-02  -4.9344578844160665e-02  -4.1111888105894549e-02  -4.5688989048249577e-02  -4.7925183948314146e-02  -4.9870435513316186e-02  -4.8521986063555074e-02  -5.0954243447496189e-02  -5.1106178987261469e-02  -5.1172760705005621e-02  -5.1213371055620058e-02  -4.9696764889271453e-02  -3.3990498672678948e-02  -4.0759075706843152e-02  -4.5698436688976364e-02  -4.6964074769145589e-02  -4.9512205138918026e-02  -4.9343498943883228e-02  -5.1087776123482045e-02  -5.1356607189693156e-02  -5.1188980055162356e-02  -5.1446914762646345e-02  -3.1140272342455935e-02  -3.1520860538027953e-02  -3.3237236868422906e-02  -3.3313648416830557e-02  -5.0218007093356741e-02  -4.9795613102657885e-02  -4.9915120622026493e-02  -4.9489723505509259e-02  -4.9533767100379079e-02  -5.0054580849609259e-02  -1.7906834480815797e-02  -4.9298088584770479e-02  -5.1195605495607623e-02  -4.9204662897537180e-02  -4.9030309759855312e-02  -5.0643942670859275e-02  -4.9871750003806885e-02  -3.3990242700749643e-02  -4.6106041414166618e-02  -4.6080232867092334e-02  -1.4725223314776281e-02  -1.3728328484261048e-02  -1.4739250640720609e-02  -4.5126242409140899e-02  -4.5982927667012223e-02  -4.3576554394725527e-02  -4.2844728079071810e-02  -4.7934407399331455e-02  -4.9712528657570344e-02  -4.7514812564190760e-02  -4.9211607574838306e-02  -4.6247744282645532e-02  -4.9150868299829530e-02  -4.5781920149399510e-02  -4.8262051422911234e-02  -4.4903643198842096e-02  -4.6691201615986944e-02  -4.6263189101394993e-02  -4.9030118690970202e-02  -4.5686051656557251e-02  -4.7929480294594387e-02  -4.4761205094533581e-02  -4.6716738821330817e-02  -4.3782958153195925e-02  -4.5706868615162669e-02  -4.3028488511859343e-02  -4.5025330241801172e-02  -4.2486073215960637e-02  -4.4714145799469432e-02  -4.2215213749342735e-02  -4.4826638014469067e-02  -4.3758198421773836e-02  -4.5584502613349655e-02  -4.2905709287859500e-02  -4.4860189164745323e-02  -4.2319492979374720e-02  -4.4533194158712000e-02  -4.2002138739789217e-02  -4.4659781855748266e-02  -4.5405317662820584e-02  -4.5097471313383646e-02  -4.8778444570670716e-02  -4.8626505486649874e-02  -4.5105194795311075e-02  -4.4531508110406605e-02  -4.2548133896604654e-02  -4.5386657055383334e-02  -4.3039934817226219e-02  -4.6202888030628983e-02  -4.3566694973142438e-02  -4.2315169830960342e-02  -4.5180512607178168e-02  -4.2722513203702420e-02  -4.5947752858581457e-02  -4.3208303295855739e-02  -4.9440644144667673e-02  -4.6266960790169544e-02  -4.5355371901463888e-02  -4.5516279539849679e-02  -4.6634305159066823e-02  -4.5636012363350763e-02  -4.6790691126935069e-02  -4.4016010616352276e-02  -3.9752822263611792e-02  -4.4254094126394458e-02  -3.9790155953746825e-02  -4.4534285013863376e-02  -3.6981935396884415e-02  -4.4675653505846867e-02  -4.5028687888610114e-02  -4.1130567088710636e-02  -3.9520581123830133e-02  -3.6803669632706468e-02  -4.4847262340882758e-02  -4.0197172572081170e-02  -4.6645063243970435e-02  -3.8916299402146665e-02  -4.6753613573364175e-02  -3.7214799672228904e-02  -3.7403594433023324e-02  -3.6455053336590389e-02  -4.2395852303347137e-02  -3.8240050067779266e-02  -4.2489756345699133e-02  -3.0571476450094320e-02  -5.0139662631646847e-02  -1.1681709574047653e-02  -4.5096082156101336e-02  -5.0147598303208356e-02  -3.8515613239668199e-02  -3.6256617717398576e-02  -4.0888390899711219e-02  -3.8496189276078098e-02  -4.5468514870327006e-02  -4.5456120322750308e-02  -4.4203661196845406e-02  -4.7472487818720280e-02  -4.5649576971665870e-02  -4.6533398483725820e-02  -4.5039466708372791e-02  -4.3231144707234437e-02  -4.2185102966572567e-02  -4.5208710991635072e-02  -4.3489699225737227e-02  -4.1175448715413329e-02  -4.1944743485922580e-02  -4.0262181521657510e-02  -4.1047956042260011e-02  -3.9885599458975712e-02  -4.0562505889643344e-02  -4.0134450852108726e-02  -4.0771360529555156e-02  -3.7544031786064774e-02  -4.2102257242978294e-02  -4.2563658820221395e-02  -4.1496179315903381e-02  -3.0916505408431966e-02  -4.0359610247396087e-02  -3.7657885683210976e-02  -3.8466936512562923e-02  -3.5773050880250887e-02  -1.0654574991408641e-02  -1.2420965537257264e-02  -1.1757858443957055e-02  -4.4520838927557059e-02  -3.8809710640585443e-02  -4.8116584167360352e-02  -4.3026233817660353e-02  -4.6005744387689104e-02  -3.2319909360154338e-02  -3.3090463001647315e-02  -3.3913284245985734e-02  -3.9148998176694996e-02  -4.2540533410979568e-02  -4.5504554864625214e-02  -4.3804669493732816e-02  -3.9143244905725523e-02  -4.1626373708822655e-02  -4.2249560520213822e-02  -4.1527733804064090e-02  -3.9686838905362863e-02  -4.0809989728398520e-02  -3.7373839893042902e-02  -3.9932203992586068e-02  -4.0363435495379053e-02  -4.0800827470642530e-02  -3.8934839300862223e-02  -4.1316882214067582e-02  -3.7786298832158838e-02  -4.1440434631066933e-02  -4.1946833920160791e-02  -4.3328804236465998e-02  -4.1360305804627170e-02  -4.4778205308303350e-02  -4.0715734373577915e-02  -4.5719291951753699e-02  -3.9180582311370664e-02  -4.4273416883561484e-02  -4.3135465989934500e-02  -4.4861342050492949e-02  -4.2450086898823007e-02  -4.9273647729259948e-02  -4.7650453280880863e-02  -3.6469047588497207e-02  -3.3892713968809239e-02  -4.3138599456485099e-02  -4.2459012378091847e-02  -4.7540139544759552e-02  -3.9515046623061906e-02  -4.7992946349035497e-02  -3.5637266578359292e-02  -3.9170155809258651e-02  -4.0857681087404084e-02  -4.6234249115654137e-02  -3.4827616238723838e-02  -4.1508384127547884e-02  -3.8829819995300358e-02  -3.7278857962776454e-02  -3.7274413418141958e-02  -3.9134515401942224e-02  -4.1655342724214069e-02  -3.7122265325972972e-02  -4.0120149636927699e-02  -3.91426824447