<?xml version="1.0"?>
<VTKFile type="UnstructuredGrid"  version="0.1"  >
<UnstructuredGrid>
<Piece  NumberOfPoints="1297" NumberOfCells="2496">
<Points>
<DataArray  type="Float64"  NumberOfComponents="3"  format="ascii">0 0 0  0 1 0  1 1 0  1 0 0  1.1 -0.1 0  -0.1 -0.1 0  1.1 1.1 0  -0.1 1.1 0  0.28837318559659 0.6692837976254031 0  0.2891295892694528 0.3312013808458362 0  0.7123017890461587 0.3303183591669626 0  0.7122894299034394 0.6698890335076653 0  0.5004214870330969 0.5001601397658931 0  0 0.9499999999997918 0  0 0.8999999999995836 0  0 0.8499999999996529 0  0 0.7999999999999998 0  0 0.7500000000003466 0  0 0.7000000000006934 0  0 0.6500000000010401 0  0 0.6000000000013869 0  0 0.5500000000017335 0  0 0.5000000000020587 0  0 0.4500000000018723 0  0 0.4000000000016644 0  0 0.3500000000014564 0  0 0.3000000000012483 0  0 0.2500000000010403 0  0 0.2000000000008322 0  0 0.1500000000006241 0  0 0.100000000000416 0  0 0.05000000000020799 0  0.04999999999989965 0 0  0.09999999999981467 0 0  0.1499999999997036 0 0  0.1999999999995579 0 0  0.2499999999994121 0 0  0.2999999999992664 0 0  0.3499999999991206 0 0  0.3999999999989749 0 0  0.4499999999988292 0 0  0.4999999999986943 0 0  0.5499999999988151 0 0  0.5999999999989468 0 0  0.6499999999990784 0 0  0.69999999999921 0 0  0.7499999999993417 0 0  0.7999999999994734 0 0  0.8499999999996051 0 0  0.8999999999997368 0 0  0.9499999999998684 0 0  1 0.04999999999989965 0  1 0.09999999999981467 0  1 0.1499999999997036 0  1 0.1999999999995579 0  1 0.2499999999994121 0  1 0.2999999999992664 0  1 0.3499999999991206 0  1 0.3999999999989749 0  1 0.4499999999988292 0  1 0.4999999999986943 0  1 0.5499999999988151 0  1 0.5999999999989468 0  1 0.6499999999990784 0  1 0.69999999999921 0  1 0.7499999999993417 0  1 0.7999999999994734 0  1 0.8499999999996051 0  1 0.8999999999997368 0  1 0.9499999999998684 0  0.9499999999997918 1 0  0.8999999999995836 1 0  0.8499999999996529 1 0  0.7999999999999998 1 0  0.7500000000003466 1 0  0.7000000000006934 1 0  0.6500000000010401 1 0  0.6000000000013869 1 0  0.5500000000017335 1 0  0.5000000000020587 1 0  0.4500000000018723 1 0  0.4000000000016644 1 0  0.3500000000014564 1 0  0.3000000000012483 1 0  0.2500000000010403 1 0  0.2000000000008322 1 0  0.1500000000006241 1 0  0.100000000000416 1 0  0.05000000000020799 1 0  -0.1 1.05000000000004 0  -0.1 1.000000000000079 0  -0.1 0.9500000000001624 0  -0.1 0.9000000000003032 0  -0.1 0.850000000000444 0  -0.1 0.8000000000005848 0  -0.1 0.7500000000007256 0  -0.1 0.7000000000008665 0  -0.1 0.6500000000010508 0  -0.1 0.6000000000012352 0  -0.1 0.5500000000014196 0  -0.1 0.500000000001539 0  -0.1 0.4500000000014195 0  -0.1 0.4000000000013 0  -0.1 0.3500000000011588 0  -0.1 0.3000000000010178 0  -0.1 0.2500000000008986 0  -0.1 0.2000000000007579 0  -0.1 0.1500000000006174 0  -0.1 0.1000000000005272 0  -0.1 0.05000000000040083 0  -0.1 2.671196597248127e-13 0  -0.1 -0.0499999999998666 0  -0.0500000000000906 -0.1 0  -1.730560139634463e-13 -0.1 0  0.04999999999975802 -0.1 0  0.09999999999961506 -0.1 0  0.1499999999994613 -0.1 0  0.199999999999302 -0.1 0  0.2499999999991446 -0.1 0  0.2999999999990088 -0.1 0  0.3499999999988296 -0.1 0  0.3999999999986936 -0.1 0  0.4499999999985143 -0.1 0  0.4999999999984002 -0.1 0  0.5499999999985247 -0.1 0  0.5999999999986493 -0.1 0  0.6499999999987955 -0.1 0  0.6999999999989417 -0.1 0  0.7499999999990659 -0.1 0  0.7999999999992116 -0.1 0  0.8499999999993573 -0.1 0  0.8999999999994526 -0.1 0  0.949999999999584 -0.1 0  0.9999999999997226 -0.1 0  1.049999999999861 -0.1 0  1.1 -0.0500000000000906 0  1.1 -1.730560139634463e-13 0  1.1 0.04999999999975802 0  1.1 0.09999999999961506 0  1.1 0.1499999999994613 0  1.1 0.199999999999302 0  1.1 0.2499999999991446 0  1.1 0.2999999999990088 0  1.1 0.3499999999988296 0  1.1 0.3999999999986936 0  1.1 0.4499999999985143 0  1.1 0.4999999999984002 0  1.1 0.5499999999985247 0  1.1 0.5999999999986493 0  1.1 0.6499999999987955 0  1.1 0.6999999999989417 0  1.1 0.7499999999990659 0  1.1 0.7999999999992116 0  1.1 0.8499999999993573 0  1.1 0.8999999999994526 0  1.1 0.949999999999584 0  1.1 0.9999999999997226 0  1.1 1.049999999999861 0  1.05000000000004 1.1 0  1.000000000000079 1.1 0  0.9500000000001624 1.1 0  0.9000000000003032 1.1 0  0.850000000000444 1.1 0  0.8000000000005848 1.1 0  0.7500000000007256 1.1 0  0.7000000000008665 1.1 0  0.6500000000010508 1.1 0  0.6000000000012352 1.1 0  0.5500000000014196 1.1 0  0.500000000001539 1.1 0  0.4500000000014195 1.1 0  0.4000000000013 1.1 0  0.3500000000011588 1.1 0  0.3000000000010178 1.1 0  0.2500000000008986 1.1 0  0.2000000000007579 1.1 0  0.1500000000006174 1.1 0  0.1000000000005272 1.1 0  0.05000000000040083 1.1 0  2.671196597248127e-13 1.1 0  -0.0499999999998666 1.1 0  0.2791951519648759 0.6557260130995358 0  0.2711715672986817 0.6372830394731386 0  0.2650002875144906 0.6165108267390419 0  0.2604865783057293 0.5942763563157116 0  0.2572661828577333 0.5712532314424812 0  0.2551124070007549 0.5477418933389876 0  0.2538907433795889 0.5239545830608207 0  0.2535315581652455 0.5000724932425585 0  0.2540099206695081 0.4761680616519488 0  0.2553516866279675 0.4523819669420587 0  0.2576422355214938 0.4288967724537069 0  0.2610008107552547 0.4059066624044125 0  0.2656586575066047 0.3837281610826422 0  0.2719284922509437 0.3629818965099147 0  0.280025105906227 0.3446460676774515 0  0.3018804816090949 0.3210736552403755 0  0.3191672433760441 0.3116887170039771 0  0.3390464889123715 0.3038708106187584 0  0.3604256099020665 0.2974879634522634 0  0.3827504532041596 0.2923320819587784 0  0.4056863395848964 0.2882367843578326 0  0.4290187553068379 0.2851007558890308 0  0.4526346874449025 0.2828545834343353 0  0.4764211691750827 0.2814793559889991 0  0.5002926675856748 0.2809666384498674 0  0.5241731494448257 0.2813151239402941 0  0.5479790782356875 0.2825274074741893 0  0.5716381810509881 0.2846251999279176 0  0.5950167057303284 0.2876321263362319 0  0.6180082994232478 0.2916112864430263 0  0.6404245140980572 0.2966606033975931 0  0.6619277866291615 0.3029740204438379 0  0.6819664380584529 0.3107512650973586 0  0.6993694266530854 0.3201332411490023 0  0.7215139053717381 0.3440563591106319 0  0.7296015124728521 0.362423703172673 0  0.7358615416115473 0.3833196353684131 0  0.7404886761150364 0.4056436021434086 0  0.7438069452525091 0.4287413364197523 0  0.7460433205208301 0.4523031567793016 0  0.7473391136633406 0.4761354705021362 0  0.7477682862105848 0.5000965585701461 0  0.7473521730328414 0.5240644366151362 0  0.7460660976973728 0.5479198968418086 0  0.7438456928284821 0.5714877295947379 0  0.7405197740413095 0.5945879941027017 0  0.7358995005550093 0.6168782103186975 0  0.7296415581356374 0.6377746859737889 0  0.7215411083344003 0.6561394455689026 0  0.69936762122341 0.6801073902463096 0  0.6819512260519005 0.6895300197839881 0  0.6619410017113712 0.6973521771267021 0  0.6404432896520441 0.7036801689647418 0  0.6180295286113849 0.7087546776958357 0  0.5950269077436863 0.7127543081880244 0  0.571619929410039 0.7157828754354595 0  0.5479459732363663 0.7178914167975541 0  0.5241202878715907 0.7191156119981738 0  0.5002218455139104 0.7194737294866851 0  0.47633162135129 0.7189723341135161 0  0.4525323418873758 0.717608627852066 0  0.4288957829331942 0.7153794670209238 0  0.4055279377447404 0.7122478960197498 0  0.3825555163737911 0.7081707358531835 0  0.3601607146049027 0.7030295606553517 0  0.3386759374139984 0.6966574845268682 0  0.3186784489515111 0.6888390477400905 0  0.3012447600468223 0.679450917534049 0  0.372030152793809 0.3186837664370525 0  0.2792389625928759 0.440447493777294 0  0.3718162209129449 0.6817589886637919 0  0.2789743614217201 0.5597327735331041 0  0.7213424855181143 0.5828875105918248 0  0.6061467088780844 0.6873939188011597 0  0.6278636968619238 0.3174510595922661 0  0.723621657175721 0.4395778286333478 0  0.7250431877928699 0.5115121080712418 0  0.5589033684256711 0.3068331336743345 0  0.4420651723011877 0.3092280463056131 0  0.4405814013006781 0.6915629030019282 0  0.5358920092994475 0.6939491828914179 0  0.2768163757392804 0.4880942122222046 0  0.2833330196601065 0.3942350626395005 0  0.4886411909048535 0.3090182991658977 0  0.2884102172199801 0.6043347786139042 0  0.7122465963564847 0.3919556900301134 0  0.4883738545618472 0.6945659931316094 0  0.6510167330958297 0.6777985641196435 0  0.3286475024205185 0.3313721538917601 0  0.672717216619543 0.3320433624939162 0  0.3288306260625385 0.6713307867535702 0  0.7110743191554743 0.6296195340602785 0  0.2939869143935794 0.3521509578123175 0  0.2953953493827084 0.6471002822711586 0  0.6916466226303285 0.6658207732906699 0  0.7079409141661582 0.3511099360642057 0  0.3498135791012095 0.6768870200488307 0  0.3609648429804492 0.6571142052506785 0  0.3832585909978623 0.6604270593379975 0  0.3714589787783929 0.636119715370392 0  0.3950040696421496 0.6385191021677165 0  0.381933159909067 0.6119527751015257 0  0.4103215917981285 0.6138743911168453 0  0.3942939893738819 0.582423536273783 0  0.3542473284116709 0.6091082050213581 0  0.4290216294559069 0.5833097846989698 0  0.4089328732299025 0.5475909148074802 0  0.3684228667369511 0.5526494591141927 0  0.3857453138502587 0.5142008448665379 0  0.3474966924479758 0.5162148710332792 0  0.3608016571319376 0.482133757103782 0  0.4010574541815806 0.4768845209449463 0  0.3795610614255293 0.4447317056471628 0  0.4161984077430476 0.4392087127682964 0  0.395501134596755 0.4088336763200905 0  0.4290817941207987 0.3967037423513627 0  0.360935348852443 0.4107909167949814 0  0.404295621736426 0.3761692798170936 0  0.4381161506518129 0.6167030480450489 0  0.4646419822767419 0.5915546441711871 0  0.4834993682099361 0.6179202866023505 0  0.5025982270665957 0.5933214027303388 0  0.5207660391760164 0.6181540847797858 0  0.5396496908048363 0.5936489131121754 0  0.5574930602667385 0.6184676901056122 0  0.576108197002038 0.5942700766607349 0  0.594453679464898 0.6212407389952767 0  0.611900775171289 0.5880787529143898 0  0.5954587971
[...]
<PointData  Scalars="state"> 
<DataArray  type="Float64"  Name="state"  format="ascii">0.0000000000000000e+00  0.0000000000000000e+00  0.0000000000000000e+00  0.0000000000000000e+00  0.0000000000000000e+00  0.0000000000000000e+00  0.0000000000000000e+00  0.0000000000000000e+00  -3.3392740538089646e-02  -3.3352141566958968e-02  -3.3595401633391093e-02  -3.3598552273799022e-02  -6.9750133957252446e-03  0.0000000000000000e+00  0.0000000000000000e+00  0.0000000000000000e+00  0.0000000000000000e+00  0.0000000000000000e+00  0.0000000000000000e+00  0.0000000000000000e+00  0.0000000000000000e+00  0.0000000000000000e+00  0.0000000000000000e+00  0.0000000000000000e+00  0.0000000000000000e+00  0.0000000000000000e+00  0.0000000000000000e+00  0.0000000000000000e+00  0.0000000000000000e+00  0.0000000000000000e+00  0.0000000000000000e+00  0.0000000000000000e+00  0.0000000000000000e+00  0.0000000000000000e+00  0.0000000000000000e+00  0.0000000000000000e+00  0.0000000000000000e+00  0.0000000000000000e+00  0.0000000000000000e+00  0.0000000000000000e+00  0.0000000000000000e+00  0.0000000000000000e+00  0.0000000000000000e+00  0.0000000000000000e+00  0.0000000000000000e+00  0.0000000000000000e+00  0.0000000000000000e+00  0.0000000000000000e+00  0.0000000000000000e+00  0.0000000000000000e+00  0.0000000000000000e+00  0.0000000000000000e+00  0.0000000000000000e+00  0.0000000000000000e+00  0.0000000000000000e+00  0.0000000000000000e+00  0.0000000000000000e+00  0.0000000000000000e+00  0.0000000000000000e+00  0.0000000000000000e+00  0.0000000000000000e+00  0.0000000000000000e+00  0.0000000000000000e+00  0.0000000000000000e+00  0.0000000000000000e+00  0.0000000000000000e+00  0.0000000000000000e+00  0.0000000000000000e+00  0.0000000000000000e+00  0.0000000000000000e+00  0.0000000000000000e+00  0.0000000000000000e+00  0.0000000000000000e+00  0.0000000000000000e+00  0.0000000000000000e+00  0.0000000000000000e+00  0.0000000000000000e+00  0.0000000000000000e+00  0.0000000000000000e+00  0.0000000000000000e+00  0.0000000000000000e+00  0.0000000000000000e+00  0.0000000000000000e+00  0.0000000000000000e+00  0.0000000000000000e+00  0.0000000000000000e+00  0.0000000000000000e+00  0.0000000000000000e+00  0.0000000000000000e+00  0.0000000000000000e+00  0.0000000000000000e+00  0.0000000000000000e+00  0.0000000000000000e+00  0.0000000000000000e+00  0.0000000000000000e+00  0.0000000000000000e+00  0.0000000000000000e+00  0.0000000000000000e+00  0.0000000000000000e+00  0.0000000000000000e+00  0.0000000000000000e+00  0.0000000000000000e+00  0.0000000000000000e+00  0.0000000000000000e+00  0.0000000000000000e+00  0.0000000000000000e+00  0.0000000000000000e+00  0.0000000000000000e+00  0.0000000000000000e+00  0.0000000000000000e+00  0.0000000000000000e+00  0.0000000000000000e+00  0.0000000000000000e+00  0.0000000000000000e+00  0.0000000000000000e+00  0.0000000000000000e+00  0.0000000000000000e+00  0.0000000000000000e+00  0.0000000000000000e+00  0.0000000000000000e+00  0.0000000000000000e+00  0.0000000000000000e+00  0.0000000000000000e+00  0.0000000000000000e+00  0.0000000000000000e+00  0.0000000000000000e+00  0.0000000000000000e+00  0.0000000000000000e+00  0.0000000000000000e+00  0.0000000000000000e+00  0.0000000000000000e+00  0.0000000000000000e+00  0.0000000000000000e+00  0.0000000000000000e+00  0.0000000000000000e+00  0.0000000000000000e+00  0.0000000000000000e+00  0.0000000000000000e+00  0.0000000000000000e+00  0.0000000000000000e+00  0.0000000000000000e+00  0.0000000000000000e+00  0.0000000000000000e+00  0.0000000000000000e+00  0.0000000000000000e+00  0.0000000000000000e+00  0.0000000000000000e+00  0.0000000000000000e+00  0.0000000000000000e+00  0.0000000000000000e+00  0.0000000000000000e+00  0.0000000000000000e+00  0.0000000000000000e+00  0.0000000000000000e+00  0.0000000000000000e+00  0.0000000000000000e+00  0.0000000000000000e+00  0.0000000000000000e+00  0.0000000000000000e+00  0.0000000000000000e+00  0.0000000000000000e+00  0.0000000000000000e+00  0.0000000000000000e+00  0.0000000000000000e+00  0.0000000000000000e+00  0.0000000000000000e+00  0.0000000000000000e+00  0.0000000000000000e+00  0.0000000000000000e+00  0.0000000000000000e+00  0.0000000000000000e+00  0.0000000000000000e+00  0.0000000000000000e+00  0.0000000000000000e+00  0.0000000000000000e+00  0.0000000000000000e+00  0.0000000000000000e+00  0.0000000000000000e+00  0.0000000000000000e+00  0.0000000000000000e+00  0.0000000000000000e+00  -3.2230840509996680e-02  -3.1054385082758089e-02  -2.9774780329300105e-02  -2.8586467215555324e-02  -2.7620507452702555e-02  -2.6918328411690017e-02  -2.6453816012083766e-02  -2.6406663246102812e-02  -2.6505617211875217e-02  -2.6965520857980603e-02  -2.7679681213100105e-02  -2.8609456534831247e-02  -2.9692513387854839e-02  -3.0935248530609361e-02  -3.2109189411605128e-02  -3.2645303660523282e-02  -3.1773945029055832e-02  -3.0799730969013162e-02  -2.9869764563130133e-02  -2.9051484193947034e-02  -2.8274785993737696e-02  -2.7645696822841279e-02  -2.7235814084290554e-02  -2.6927061137641251e-02  -2.6840419864779596e-02  -2.6927582200794789e-02  -2.7217348920735268e-02  -2.7703448904545052e-02  -2.8305269850020607e-02  -2.9167299635652170e-02  -3.0090804294040718e-02  -3.1015612051363071e-02  -3.1998282392035504e-02  -3.2866197479663496e-02  -3.2480384637427057e-02  -3.1218202080389536e-02  -2.9935552506932542e-02  -2.8723579616101204e-02  -2.7761021273885998e-02  -2.7046426772349877e-02  -2.6635509344759480e-02  -2.6471925768456785e-02  -2.6618218587791280e-02  -2.7108466393830143e-02  -2.7816875187016074e-02  -2.8743940436495363e-02  -2.9979865325324730e-02  -3.1268551856892084e-02  -3.2521930129602611e-02  -3.2846202185353640e-02  -3.1984035494336954e-02  -3.1062864156439392e-02  -3.0110119530172459e-02  -2.9169196142912458e-02  -2.8285816684416491e-02  -2.7684494638184544e-02  -2.7165349360510793e-02  -2.6858145723394473e-02  -2.6785080555847069e-02  -2.6900765283859627e-02  -2.7176575392657019e-02  -2.7545492660038168e-02  -2.8197602536694108e-02  -2.8998901830475269e-02  -2.9832896428837546e-02  -3.0797639871198934e-02  -3.1796734333217197e-02  -3.2670391159460209e-02  -2.4406150377938880e-02  -2.2817734258353081e-02  -2.4397769292547070e-02  -2.2807138341089248e-02  -2.4141026763533750e-02  -2.3713938643583968e-02  -2.4565442449072335e-02  -2.3127305649606994e-02  -2.2070463470892365e-02  -2.2354087045800160e-02  -2.1970143146774548e-02  -2.1994809455086348e-02  -2.1704646670532488e-02  -2.1916473232856132e-02  -2.5165206703456330e-02  -2.0944679586400561e-02  -2.4217088869361098e-02  -2.4639513658754598e-02  -2.1447434387698413e-02  -2.5777515800680023e-02  -2.6587428090832234e-02  -2.6517296156524355e-02  -2.6869112332904954e-02  -2.6619019403647658e-02  -2.8185494186266778e-02  -2.7624468085539883e-02  -2.8609762837725809e-02  -2.8467256689156041e-02  -2.5546275297637030e-02  -2.2070225147063884e-02  -2.0835170259528572e-02  -1.9153177161048404e-02  -1.7825738170793297e-02  -1.6271260958836166e-02  -1.4728067240246072e-02  -1.3275863589389692e-02  -1.8075721859020118e-02  -1.1457620665946645e-02  -1.0507640245241073e-02  -1.3499489147189897e-02  -1.1133842389671753e-02  -1.4344211812408974e-02  -1.3207334506912985e-02  -1.0277299223399891e-02  -1.2740794113085282e-02  -1.0725825094054437e-02  -1.3839815165860414e-02  -1.3017395402328319e-02  -1.6213495957365147e-02  -1.6124648491480598e-02  -1.3746820239879519e-02  -1.0901734450475273e-02  -1.2882024416887936e-02  -1.0709664640861443e-02  -1.3007456799395809e-02  -1.1221716073082097e-02  -1.3851946443467537e-02  -1.2503073464292840e-02  -1.5621205998467943e-02  -1.3991959049478539e-02  -1.1061782376507623e-02  -1.3536311379743447e-02  -1.1107438950382645e-02  -1.6520024434844436e-02  -1.6661887876060225e-02  -1.7385924280811694e-02  -1.6562660790018401e-02  -1.6444833829499090e-02  -1.7537150141588759e-02  -1.5359075455474833e-02  -1.2595295157982364e-02  -1.9786723995561719e-02  -1.8056680932652801e-02  -1.6074437855754360e-02  -1.6839976637347851e-02  -1.5601897602507984e-02  -1.2159204964969462e-02  -1.5895484276778796e-02  -1.3049494845992398e-02  -9.7920407926857089e-03  -1.1725090252876338e-02  -1.4527999650736008e-02  -1.4086397672823821e-02  -1.0491557712680007e-02  -1.3637203409425732e-02  -1.6507410715985035e-02  -1.6567438727379476e-02  -1.4650029824443477e-02  -1.9065127000124069e-02  -1.9556670855819205e-02  -2.1683100930578781e-02  -2.1759539722666081e-02  -9.0501179851489744e-03  -1.9526725941796025e-02  -1.9565010105906562e-02  -1.9762858086331932e-02  -1.7837011243881075e-02  -2.1909743420613623e-02  -2.2423391615139902e-02  -2.0737715372230469e-02  -1.6231199783375193e-02  -1.8694838847578724e-02  -2.0429330451225892e-02  -1.7895051052569857e-02  -1.5948661255295263e-02  -1.8509235693506279e-02  -1.9313237366331139e-02  -1.6158764311296744e-02  -1.8441663036639664e-02  -2.1089477996576473e-02  -2.1845521480076204e-02  -2.0519319080329411e-02  -1.9731256754323943e-02  -1.8873297607899787e-02  -2.0701774637047261e-02  -1.6755561289506657e-02  -8.4881500446325354e-03  -2.1031153228745769e-02  -8.5019667952663698e-03  -1.4177348964770251e-02  -1.7218083321244981e-02  -1.4691091537765136e-02  -1.7396737930075595e-02  -1.9484829896249996e-02  -2.0081296685383363e-02  -1.8622382096152256e-02  -1.7034828360525431e-02  -1.8697570853159880e-02  -1.8782944054927874e-02  -1.0088953914931061e-02  -2.3821311761074423e-02  -2.4170317433298290e-02  -1.7481747299542431e-02  -2.0000776430628850e-02  -1.9478095657079503e-02  -1.7634260051736805e-02  -1.8410223491981945e-02  -2.1092216750631245e-02  -1.9295244970184096e-02  -2.1246782565885729e-02  -2.1323373628567666e-02  -2.3267487028503960e-02  -2.5074525895270729e-02  -2.5407974581948774e-02  -1.9377006263660498e-02  -2.1487380887466590e-02  -2.1715231868079311e-02  -2.3194439151555491e-02  -2.5473844506001007e-02  -2.6418857218181688e-02  -2.2580320318087207e-02  -1.9110287586979042e-02  -1.6858688424388712e-02  -2.4567694989925441e-02  -2.3398132573271776e-02  -2.2123361920653787e-02  -2.5773117733500790e-02  -2.1857531931944688e-02  -2.1505565854086708e-02  -2.3605788266854968e-02  -2.6374219658700009e-02  -2.3307492305058641e-02  -2.1639748275080892e-02  -2.3794976002750493e-02  -2.0918456339555840e-02  -2.2857625632272460e-02  -2.0373782561405311e-02  -2.2265007576053295e-02  -2.4827959023885845e-02  -2.7058570656908112e-02  -2.5460495914012414e-02  -2.1541268262904260e-02  -1.7794185552994522e-02  -2.3706391051369114e-02  -2.3630326710642944e-02  -2.1958644183507119e-02  -2.8402081751481227e-02  -2.8411709154502241e-02  -2.8467579257878160e-02  -2.8590373582410331e-02  -2.2794073747901065e-02  -9.7243229225699706e-03  -8.0334127359029794e-03  -1.9340193840856824e-02  -2.3604652271995076e-02  -2.4030950123525737e-02  -2.3433180283113281e-02  -2.6780043849423611e-02  -2.1994659231961061e-02  -2.2541109575150594e-02  -1.8268070059068463e-02  -1.7571460048384939e-02  -2.1659117088899150e-02  -1.6882436275232247e-02  -8.7935617983153445e-03  -8.9082772690634547e-03  -1.2179196565189997e-02  -2.0628422796654711e-02  -2.2493991978220145e-02  -1.8612289531340642e-02  -2.0110010734558943e-02  -1.8698390716485602e-02  -2.2408452520071342e-02  -2.2356154367326190e-02  -9.2911070487460088e-03  -2.4075377791876997e-02  -1.9116585266883018e-02  -2.0351848331457121e-02  -1.6227015874988465e-02  -2.2187988841398342e-02  -1.6323809721783909e-02  -1.2101558574839126e-02  -2.2868056070680907e-02  -7.6933776645771532e-03  -1.5476551523305597e-02  -2.6093926839107204e-02  -1.6731409615004411e-02  -1.8980693775758707e-02  -1.9630494686069973e-02  -9.5574123058117313e-03  -2.2739635077236850e-02  -2.1240290076535901e-02  -1.8744972221528031e-02  -7.4394626012288514e-03  -2.0340791483100123e-02  -1.9497976358452632e-02  -8.0102859490369105e-03  -1.5838627522147271e-02  -1.8597814460249905e-02  -7.4819713562675498e-03  -1.6090276552844889e-02  -2.0986230886457249e-02  -2.1857586269454703e-02  -1.8438984152673255e-02  -1.5202810155009733e-02  -1.9144098070049489e-02  -2.3217023370441087e-02  -1.6601219300028315e-02  -3.0011800252477790e-02  -3.0162299642069533e-02  -3.0009652011551795e-02  -3.0222255430304882e-02  -2.1433500569763869e-02  -2.4103782644151538e-02  -2.0819512500081402e-02  -2.2745926328246777e-02  -1.9528199117187135e-02  -1.5258443000295817e-02  -2.3500898316274711e-02  -2.2210263751149144e-02  -1.8558696481071512e-02  -1.4282093958147691e-02  -1.5505828618523596e-02  -1.3894536834899444e-02  -2.1634484921637380e-02  -1.4230887624118019e-02  -1.9538877211637697e-02  -1.3744336599758366e-02  -7.6280496944563505e-03  -1.8786775431593468e-02  -1.6102296602413350e-02  -1.7822043346118099e-02  -1.8892572623693968e-02  -1.5089262167712300e-02  -1.4392727428076060e-02  -8.7163410335733289e-03  -2.5024937878491579e-02  -3.1647606839107383e-02  -3.2077069480367683e-02  -3.4220719716098025e-02  -3.7003640245849588e-02  -3.4219978748373917e-02  -3.7653950753255158e-02  -3.1975846191696550e-02  -3.3822877463578122e-02  -3.1932971639353991e-02  -3.3948663257382876e-02  -3.7185293547483796e-02  -3.6899813270714468e-02  -1.6941944949556927e-02  -1.5077839612101778e-02  -1.8205489053947976e-02  -1.5708016634580536e-02  -3.1348329897969832e-02  -3.5574272226736675e-02  -3.5804560421958995e-02  -3.1418452105579225e-02  -4.0650260390365699e-02  -4.5218277983878473e-02  -3.2130428617674796e-02  -3.1921557551925647e-02  -3.7486415404248748e-02  -4.6299496564551193e-02  -4.8757770007791044e-02  -4.8728462553874030e-02  -5.0383467586633590e-02  -5.0746866415540340e-02  -1.8322129632440586e-02  -1.7771560067190068e-02  -1.8309215489581091e-02  -1.7774233140309462e-02  -1.6975299027705969e-02  -1.6547382292417024e-02  -1.7567152371657367e-02  -5.0504318267721456e-02  -5.1107175917874170e-02  -4.8394716229046238e-02  -4.6668667833996293e-02  -1.8472109888577969e-02  -1.7827189890355023e-02  -1.7122161820060548e-02  -1.6697229817903506e-02  -1.8095938254647063e-02  -1.7053042676285858e-02  -1.9578806192197144e-02  -1.6336645034756490e-02  -4.6766887340652902e-02  -4.5626477182617399e-02  -1.8307041174633849e-02  -1.6451093048301137e-02  -1.8332238332854345e-02  -4.1223559014343131e-02  -4.5036986212894287e-02  -4.7503604237723096e-02  -4.9301937842010299e-02  -5.0460179669052169e-02  -5.0518981099541137e-02  -4.9611346814285910e-02  -5.0571377751370168e-02  -5.0797044584691441e-02  -4.8892111686440566e-02  -4.1198798977323703e-02  -4.5282021716046249e-02  -4.7559654315064190e-02  -4.9340475178569550e-02  -4.7916930015072877e-02  -5.0539672515321647e-02  -5.0590638600572134e-02  -5.0794292286222953e-02  -5.0952410709460529e-02  -4.9248303725108938e-02  -3.3758198529861692e-02  -4.0706464093439802e-02  -4.5284328874987269e-02  -4.6394011879084214e-02  -4.8926512617169883e-02  -4.8874048254628114e-02  -5.0556156499926994e-02  -5.0932867135892963e-02  -5.0747245511649976e-02  -5.1131140457383088e-02  -3.0698567523388044e-02  -3.1029167981426103e-02  -3.2894941154730878e-02  -3.3024101315041861e-02  -4.9612796709433520e-02  -4.9568188954121573e-02  -4.9830377094454509e-02  -4.9155582119047719e-02  -4.9300938422663608e-02  -4.9966087200613733e-02  -1.7738446279913989e-02  -4.9102263230376433e-02  -5.1047798568982033e-02  -4.8880310553023047e-02  -4.8844644936601900e-02  -5.0529761169176034e-02  -4.9346076058914598e-02  -3.3794478984425357e-02  -4.6024213498776660e-02  -4.5992713266816594e-02  -1.4621786165558114e-02  -1.3636056439537650e-02  -1.4637325563397943e-02  -4.4898706768894632e-02  -4.5775396179362444e-02  -4.2934166085401057e-02  -4.2195327435632424e-02  -4.7903611317291629e-02  -4.9784428173025710e-02  -4.7496668556136157e-02  -4.9303920848455966e-02  -4.6325779213398449e-02  -4.9262488049444601e-02  -4.6057125849113166e-02  -4.8604873735987326e-02  -4.5392423526467683e-02  -4.7291049702110767e-02  -4.6339140715270163e-02  -4.9162362172033167e-02  -4.5960316519080890e-02  -4.8299222217827835e-02  -4.5250319502977129e-02  -4.7317706789996451e-02  -4.4466857341210919e-02  -4.6505060905489108e-02  -4.3868087069090130e-02  -4.5964481743652974e-02  -4.3421209333015132e-02  -4.5717405092637019e-02  -4.3168538190864574e-02  -4.5808281990676797e-02  -4.4445324500217959e-02  -4.6387275609197511e-02  -4.3750897869091816e-02  -4.5805249680195358e-02  -4.3262429114676884e-02  -4.5545566314767354e-02  -4.2965663079211652e-02  -4.5655397867584872e-02  -4.5187772427211892e-02  -4.4778461695386483e-02  -4.8448901885974678e-02  -4.8316636965957227e-02  -4.4894845641939018e-02  -4.4220785449950471e-02  -4.3448080225468651e-02  -4.6267090635697450e-02  -4.3814468778564118e-02  -4.6918311119628520e-02  -4.4167174753459666e-02  -4.3228725520854112e-02  -4.6078354504210974e-02  -4.3514487690036685e-02  -4.6685488822147646e-02  -4.3838297906735282e-02  -4.8868243066501636e-02  -4.5800419432365291e-02  -4.4785948852637730e-02  -4.6304234424529085e-02  -4.7243228990581233e-02  -4.6405800741912459e-02  -4.7385009322682858e-02  -4.4995568265558929e-02  -3.9803639920356980e-02  -4.5224473498408781e-02  -3.9833591385541219e-02  -4.5375691234104655e-02  -3.7819620041744127e-02  -4.5513837000317449e-02  -4.5207367283432699e-02  -4.1175252317600559e-02  -3.9316062511133024e-02  -3.7649099600379481e-02  -4.5013163511668619e-02  -4.0250280366520466e-02  -4.7105484874157187e-02  -3.8719943400505198e-02  -4.7207247374795126e-02  -3.6647311371422846e-02  -3.6869360681802563e-02  -3.5900462995192922e-02  -4.1776360088314701e-02  -3.7973081150784682e-02  -4.2102516412569312e-02  -3.0415454505212453e-02  -5.0135846316249573e-02  -1.1648941462461966e-02  -4.4470944845357997e-02  -5.0121306583949830e-02  -3.9050416234746234e-02  -3.5734179970788531e-02  -4.0338515956505082e-02  -3.9027472799235019e-02  -4.5295781580934044e-02  -4.5307929532659753e-02  -4.3711562832085687e-02  -4.6801205066664381e-02  -4.5001574607176298e-02  -4.5839484491594792e-02  -4.4367756246458015e-02  -4.2573830235773089e-02  -4.1557282812825044e-02  -4.4547466832229626e-02  -4.2879433482712108e-02  -4.0600547110923674e-02  -4.1409043109704474e-02  -3.9744211781803762e-02  -4.0567582682987442e-02  -3.9405659915700025e-02  -4.0112219852470529e-02  -3.9695373316558417e-02  -4.0424880288668412e-02  -3.7280363244264536e-02  -4.1723186625282266e-02  -4.1996532572817276e-02  -4.0988731394406480e-02  -3.0760284294544388e-02  -3.9887680819394089e-02  -3.7550316617013760e-02  -3.8349454621126176e-02  -3.5309544349791937e-02  -1.0625630714585999e-02  -1.2380509034640361e-02  -1.1721009438101724e-02  -4.4054331726080968e-02  -3.8917165839161036e-02  -4.7434904570933717e-02  -4.2397121163011746e-02  -4.5271359378050345e-02  -3.2017396467782136e-02  -3.2859401605958051e-02  -3.3614231725834970e-02  -3.8518901988273700e-02  -4.1831973360172102e-02  -4.4758052135990288e-02  -4.3091711132337056e-02  -3.8499558879259974e-02  -4.0982625639525504e-02  -4.1620855191881814e-02  -4.0946488233973621e-02  -3.9104318528726333e-02  -4.0259895611304081e-02  -3.6845184687446637e-02  -3.9398148602053207e-02  -3.9853210866808923e-02  -4.0271929582166244e-02  -3.8392200492451234e-02  -4.0737828436582371e-02  -3.7221669858508458e-02  -4.0803279496272687e-02  -4.1335719341894631e-02  -4.2642607794378215e-02  -4.0683681231046841e-02  -4.4035039699926046e-02  -4.0041235970380715e-02  -4.4982141062018401e-02  -3.8561737454377631e-02  -4.3627031114171440e-02  -4.3693353065851183e-02  -4.5275715342938512e-02  -4.3144260712280599e-02  -4.9507144157871871e-02  -4.7791811705139062e-02  -3.5929997892996203e-02  -3.3380202643941564e-02  -4.3679556772566797e-02  -4.3133376311624609e-02  -4.7504837936968414e-02  -3.9059388829476377e-02  -4.8393877107671936e-02  -3.5159757990049542e-02  -3.9603866387267685e-02  -4.0356579683030809e-02  -4.5487528395720261e-02  -3.4320282781111405e-02  -4.0981571970432028e-02  -3.8400559362025785e-02  -3.7896054591105788e-02  -3.7734278570074706e-02  -3.9549603137736408e-02  -4.1131738688110570e-02  -3.6712917073434014e-02  -3.9644161618207781e-02  -3.87017137034