<?xml version="1.0"?>
<VTKFile type="UnstructuredGrid"  version="0.1"  >
<UnstructuredGrid>
<Piece  NumberOfPoints="1286" NumberOfCells="2474">
<Points>
<DataArray  type="Float64"  NumberOfComponents="3"  format="ascii">0 0 0  0 1 0  1 1 0  1 0 0  1.1 -0.1 0  -0.1 -0.1 0  1.1 1.1 0  -0.1 1.1 0  0.2500485744860849 0.4969962850597582 0  0.5012618113578494 0.4992234044302352 0  0 0.9499999999997918 0  0 0.8999999999995836 0  0 0.8499999999996529 0  0 0.7999999999999998 0  0 0.7500000000003466 0  0 0.7000000000006934 0  0 0.6500000000010401 0  0 0.6000000000013869 0  0 0.5500000000017335 0  0 0.5000000000020587 0  0 0.4500000000018723 0  0 0.4000000000016644 0  0 0.3500000000014564 0  0 0.3000000000012483 0  0 0.2500000000010403 0  0 0.2000000000008322 0  0 0.1500000000006241 0  0 0.100000000000416 0  0 0.05000000000020799 0  0.04999999999989965 0 0  0.09999999999981467 0 0  0.1499999999997036 0 0  0.1999999999995579 0 0  0.2499999999994121 0 0  0.2999999999992664 0 0  0.3499999999991206 0 0  0.3999999999989749 0 0  0.4499999999988292 0 0  0.4999999999986943 0 0  0.5499999999988151 0 0  0.5999999999989468 0 0  0.6499999999990784 0 0  0.69999999999921 0 0  0.7499999999993417 0 0  0.7999999999994734 0 0  0.8499999999996051 0 0  0.8999999999997368 0 0  0.9499999999998684 0 0  1 0.04999999999989965 0  1 0.09999999999981467 0  1 0.1499999999997036 0  1 0.1999999999995579 0  1 0.2499999999994121 0  1 0.2999999999992664 0  1 0.3499999999991206 0  1 0.3999999999989749 0  1 0.4499999999988292 0  1 0.4999999999986943 0  1 0.5499999999988151 0  1 0.5999999999989468 0  1 0.6499999999990784 0  1 0.69999999999921 0  1 0.7499999999993417 0  1 0.7999999999994734 0  1 0.8499999999996051 0  1 0.8999999999997368 0  1 0.9499999999998684 0  0.9499999999997918 1 0  0.8999999999995836 1 0  0.8499999999996529 1 0  0.7999999999999998 1 0  0.7500000000003466 1 0  0.7000000000006934 1 0  0.6500000000010401 1 0  0.6000000000013869 1 0  0.5500000000017335 1 0  0.5000000000020587 1 0  0.4500000000018723 1 0  0.4000000000016644 1 0  0.3500000000014564 1 0  0.3000000000012483 1 0  0.2500000000010403 1 0  0.2000000000008322 1 0  0.1500000000006241 1 0  0.100000000000416 1 0  0.05000000000020799 1 0  -0.1 1.05000000000004 0  -0.1 1.000000000000079 0  -0.1 0.9500000000001624 0  -0.1 0.9000000000003032 0  -0.1 0.850000000000444 0  -0.1 0.8000000000005848 0  -0.1 0.7500000000007256 0  -0.1 0.7000000000008665 0  -0.1 0.6500000000010508 0  -0.1 0.6000000000012352 0  -0.1 0.5500000000014196 0  -0.1 0.500000000001539 0  -0.1 0.4500000000014195 0  -0.1 0.4000000000013 0  -0.1 0.3500000000011588 0  -0.1 0.3000000000010178 0  -0.1 0.2500000000008986 0  -0.1 0.2000000000007579 0  -0.1 0.1500000000006174 0  -0.1 0.1000000000005272 0  -0.1 0.05000000000040083 0  -0.1 2.671196597248127e-13 0  -0.1 -0.0499999999998666 0  -0.0500000000000906 -0.1 0  -1.730560139634463e-13 -0.1 0  0.04999999999975802 -0.1 0  0.09999999999961506 -0.1 0  0.1499999999994613 -0.1 0  0.199999999999302 -0.1 0  0.2499999999991446 -0.1 0  0.2999999999990088 -0.1 0  0.3499999999988296 -0.1 0  0.3999999999986936 -0.1 0  0.4499999999985143 -0.1 0  0.4999999999984002 -0.1 0  0.5499999999985247 -0.1 0  0.5999999999986493 -0.1 0  0.6499999999987955 -0.1 0  0.6999999999989417 -0.1 0  0.7499999999990659 -0.1 0  0.7999999999992116 -0.1 0  0.8499999999993573 -0.1 0  0.8999999999994526 -0.1 0  0.949999999999584 -0.1 0  0.9999999999997226 -0.1 0  1.049999999999861 -0.1 0  1.1 -0.0500000000000906 0  1.1 -1.730560139634463e-13 0  1.1 0.04999999999975802 0  1.1 0.09999999999961506 0  1.1 0.1499999999994613 0  1.1 0.199999999999302 0  1.1 0.2499999999991446 0  1.1 0.2999999999990088 0  1.1 0.3499999999988296 0  1.1 0.3999999999986936 0  1.1 0.4499999999985143 0  1.1 0.4999999999984002 0  1.1 0.5499999999985247 0  1.1 0.5999999999986493 0  1.1 0.6499999999987955 0  1.1 0.6999999999989417 0  1.1 0.7499999999990659 0  1.1 0.7999999999992116 0  1.1 0.8499999999993573 0  1.1 0.8999999999994526 0  1.1 0.949999999999584 0  1.1 0.9999999999997226 0  1.1 1.049999999999861 0  1.05000000000004 1.1 0  1.000000000000079 1.1 0  0.9500000000001624 1.1 0  0.9000000000003032 1.1 0  0.850000000000444 1.1 0  0.8000000000005848 1.1 0  0.7500000000007256 1.1 0  0.7000000000008665 1.1 0  0.6500000000010508 1.1 0  0.6000000000012352 1.1 0  0.5500000000014196 1.1 0  0.500000000001539 1.1 0  0.4500000000014195 1.1 0  0.4000000000013 1.1 0  0.3500000000011588 1.1 0  0.3000000000010178 1.1 0  0.2500000000008986 1.1 0  0.2000000000007579 1.1 0  0.1500000000006174 1.1 0  0.1000000000005272 1.1 0  0.05000000000040083 1.1 0  2.671196597248127e-13 1.1 0  -0.0499999999998666 1.1 0  0.2542485295849886 0.4675385564963637 0  0.2625155612392522 0.4395449473477941 0  0.2737990373286486 0.413181545480474 0  0.2873330443829186 0.3884795762941415 0  0.3024857566398362 0.3654532352655562 0  0.3188290651302921 0.3441343300891144 0  0.3358529721900362 0.3247472026776573 0  0.3554429306856108 0.3059542611907644 0  0.3770655739529767 0.2886981597811243 0  0.400374244284497 0.273501966565013 0  0.4253588899423725 0.2607512699605983 0  0.4517612115057935 0.2509910528294741 0  0.4796474281168143 0.2449630844757355 0  0.5087684650474957 0.2438462594695973 0  0.5371438141910642 0.2479220556502663 0  0.5644343682720194 0.2562536590394447 0  0.5902991763581349 0.2679238033600108 0  0.6146158442290324 0.2820492436140977 0  0.637542809027618 0.2984023100601415 0  0.6589756793494572 0.3166518307075389 0  0.6786892130505873 0.3363891463510987 0  0.6970067306704791 0.3578934385170334 0  0.7133711342013537 0.3806240738770698 0  0.7276865113710438 0.404714488568367 0  0.7395069412436248 0.4301948955451005 0  0.7483460095628807 0.4570355401643659 0  0.7533055540134804 0.4851210363685288 0  0.7533497617056907 0.5139357352380727 0  0.7485565940324845 0.5417555280047727 0  0.739657033988476 0.5690362622108212 0  0.7278231105269606 0.5946706213827518 0  0.7134404975340624 0.6189201628074045 0  0.6968719203775045 0.6418564418903451 0  0.6785232857709065 0.6632772298300043 0  0.6586325632057956 0.6830836393711822 0  0.6370053342221288 0.7013350241912008 0  0.6140352173497229 0.7175454361110787 0  0.5893430668637338 0.7317654251737798 0  0.5634353834725013 0.7432983475978028 0  0.5357350046372068 0.7516607331921238 0  0.5069980485403681 0.7556913553968075 0  0.4778596295834517 0.7544627499775485 0  0.4497066197307631 0.7483243735839671 0  0.4230687094461283 0.7385098233638713 0  0.3977676413861255 0.7258018991302831 0  0.373892218680953 0.7106737449398838 0  0.3513520334994746 0.6933585073800687 0  0.3304490325884064 0.6742450380436055 0  0.3113665746564337 0.6535781277044703 0  0.2938779885222388 0.6308909175725168 0  0.2786945088284441 0.6068948733098251 0  0.2660424954093733 0.5813492131022857 0  0.2564516272770858 0.5544392372909765 0  0.2507674037481131 0.5262023449974872 0  0.5026205450995849 0.6298730479405136 0  0.510557048783461 0.3621657191894964 0  0.6465131479854589 0.4978618739437325 0  0.351116974507195 0.4982254945331802 0  0.4010047921138878 0.4090575041557849 0  0.3953782646801264 0.5884137110450277 0  0.591115077267972 0.3929240519178554 0  0.5899578646436401 0.6063704041013686 0  0.4339609115019103 0.6551899342111794 0  0.4858879369736784 0.6926686188934666 0  0.5460494824875258 0.6892485335792063 0  0.4319343231592496 0.3404515504030305 0  0.4883813512623035 0.3044966304283056 0  0.5494250653562702 0.3099398547424496 0  0.6578423998245099 0.590460136937124 0  0.6584425687147083 0.4093560108704828 0  0.3384104662258471 0.5780489011227046 0  0.342285264707794 0.4184745052866106 0  0.3801877611398062 0.6424566229770451 0  0.3841364957240567 0.3537539788835228 0  0.5949305140919405 0.6581638714555745 0  0.5960053363867927 0.3413418225084114 0  0.6983075223082176 0.4997430926359044 0  0.6964436127928187 0.5539879000564167 0  0.696604456369311 0.4461552977927658 0  0.3057147684534974 0.4517690652965612 0  0.2935983203329062 0.5035474081017882 0  0.63811135903879 0.3654630580679797 0  0.6378847829839374 0.6351094074791409 0  0.3006192605230411 0.5539235458887574 0  0.4254034365533767 0.5125917440444258 0  0.4420945698881758 0.6993476266596413 0  0.4445401051599049 0.2996541587929293 0  0.3495189409829484 0.3765042035894249 0  0.3447519793319184 0.6209259851874713 0  0.5642871450487421 0.5240107782389056 0  0.5226820539901276 0.4396254268065873 0  0.5211414029539723 0.2806312869556896 0  0.5188563306113496 0.7184488085098454 0  0.4689632255396399 0.5753745450771219 0  0.4710608159417116 0.444683553735598 0  0.3976531685509926 0.6739551599868768 0  0.4010533278210023 0.3254773779985027 0  0.6174603658697905 0.4493040422114886 0  0.6157594290733727 0.5477323763208248 0  0.5814736794659576 0.3102365820826967 0  0.5805096076896804 0.689038226684593 0  0.3839536473916826 0.5359211603111276 0  0.3786978804657501 0.4567408794698299 0  0.44387182779664 0.4073098401467077 0  0.71629136889103 0.529030124809855 0  0.7172217567057805 0.46872785528427 0  0.5513477900672266 0.6246837946216666 0  0.5545703143185036 0.3736857334176287 0  0.6962048268454409 0.5868603227035331 0  0.6958846540441607 0.4121330056868842 0  0.4209004898091878 0.6219782285372849 0  0.3072032503890439 0.4166855390472626 0  0.4737274826106214 0.7272673549795142 0  0.4754191199858507 0.2720186275580048 0  0.4600202677305843 0.6789975408640955 0  0.4592418627568873 0.3205668211368674 0  0.6671039811357724 0.3766844962004338 0  0.6671585587718541 0.6224247061767382 0  0.6278584545820478 0.3339592859457637 0  0.6276651784292634 0.6652498924644307 0  0.2819581442907783 0.4692356866139364 0  0.3060798848101027 0.5842013596001261 0  0.7284233036828492 0.499331716023605 0  0.5179559147891925 0.5638362606974753 0  0.2806222561017021 0.5329983849352387 0  0.3245009009451471 0.3902727805504199 0  0.4564948619694251 0.6199976821039784 0  0.5659597416625844 0.2847431627767872 0  0.5641995013223651 0.7146676590350893 0  0.3424890995222611 0.539674260973603 0  0.3164495719952458 0.5245473555506072 0  0.56676947991
[...]
<PointData  Scalars="state"> 
<DataArray  type="Float64"  Name="state"  format="ascii">0.0000000000000000e+00  0.0000000000000000e+00  0.0000000000000000e+00  0.0000000000000000e+00  0.0000000000000000e+00  0.0000000000000000e+00  0.0000000000000000e+00  0.0000000000000000e+00  -2.9152799377744516e-02  -5.2438237220614877e-03  0.0000000000000000e+00  0.0000000000000000e+00  0.0000000000000000e+00  0.0000000000000000e+00  0.0000000000000000e+00  0.0000000000000000e+00  0.0000000000000000e+00  0.0000000000000000e+00  0.0000000000000000e+00  0.0000000000000000e+00  0.0000000000000000e+00  0.0000000000000000e+00  0.0000000000000000e+00  0.0000000000000000e+00  0.0000000000000000e+00  0.0000000000000000e+00  0.0000000000000000e+00  0.0000000000000000e+00  0.0000000000000000e+00  0.0000000000000000e+00  0.0000000000000000e+00  0.0000000000000000e+00  0.0000000000000000e+00  0.0000000000000000e+00  0.0000000000000000e+00  0.0000000000000000e+00  0.0000000000000000e+00  0.0000000000000000e+00  0.0000000000000000e+00  0.0000000000000000e+00  0.0000000000000000e+00  0.0000000000000000e+00  0.0000000000000000e+00  0.0000000000000000e+00  0.0000000000000000e+00  0.0000000000000000e+00  0.0000000000000000e+00  0.0000000000000000e+00  0.0000000000000000e+00  0.0000000000000000e+00  0.0000000000000000e+00  0.0000000000000000e+00  0.0000000000000000e+00  0.0000000000000000e+00  0.0000000000000000e+00  0.0000000000000000e+00  0.0000000000000000e+00  0.0000000000000000e+00  0.0000000000000000e+00  0.0000000000000000e+00  0.0000000000000000e+00  0.0000000000000000e+00  0.0000000000000000e+00  0.0000000000000000e+00  0.0000000000000000e+00  0.0000000000000000e+00  0.0000000000000000e+00  0.0000000000000000e+00  0.0000000000000000e+00  0.0000000000000000e+00  0.0000000000000000e+00  0.0000000000000000e+00  0.0000000000000000e+00  0.0000000000000000e+00  0.0000000000000000e+00  0.0000000000000000e+00  0.0000000000000000e+00  0.0000000000000000e+00  0.0000000000000000e+00  0.0000000000000000e+00  0.0000000000000000e+00  0.0000000000000000e+00  0.0000000000000000e+00  0.0000000000000000e+00  0.0000000000000000e+00  0.0000000000000000e+00  0.0000000000000000e+00  0.0000000000000000e+00  0.0000000000000000e+00  0.0000000000000000e+00  0.0000000000000000e+00  0.0000000000000000e+00  0.0000000000000000e+00  0.0000000000000000e+00  0.0000000000000000e+00  0.0000000000000000e+00  0.0000000000000000e+00  0.0000000000000000e+00  0.0000000000000000e+00  0.0000000000000000e+00  0.0000000000000000e+00  0.0000000000000000e+00  0.0000000000000000e+00  0.0000000000000000e+00  0.0000000000000000e+00  0.0000000000000000e+00  0.0000000000000000e+00  0.0000000000000000e+00  0.0000000000000000e+00  0.0000000000000000e+00  0.0000000000000000e+00  0.0000000000000000e+00  0.0000000000000000e+00  0.0000000000000000e+00  0.0000000000000000e+00  0.0000000000000000e+00  0.0000000000000000e+00  0.0000000000000000e+00  0.0000000000000000e+00  0.0000000000000000e+00  0.0000000000000000e+00  0.0000000000000000e+00  0.0000000000000000e+00  0.0000000000000000e+00  0.0000000000000000e+00  0.0000000000000000e+00  0.0000000000000000e+00  0.0000000000000000e+00  0.0000000000000000e+00  0.0000000000000000e+00  0.0000000000000000e+00  0.0000000000000000e+00  0.0000000000000000e+00  0.0000000000000000e+00  0.0000000000000000e+00  0.0000000000000000e+00  0.0000000000000000e+00  0.0000000000000000e+00  0.0000000000000000e+00  0.0000000000000000e+00  0.0000000000000000e+00  0.0000000000000000e+00  0.0000000000000000e+00  0.0000000000000000e+00  0.0000000000000000e+00  0.0000000000000000e+00  0.0000000000000000e+00  0.0000000000000000e+00  0.0000000000000000e+00  0.0000000000000000e+00  0.0000000000000000e+00  0.0000000000000000e+00  0.0000000000000000e+00  0.0000000000000000e+00  0.0000000000000000e+00  0.0000000000000000e+00  0.0000000000000000e+00  0.0000000000000000e+00  0.0000000000000000e+00  0.0000000000000000e+00  0.0000000000000000e+00  0.0000000000000000e+00  0.0000000000000000e+00  0.0000000000000000e+00  0.0000000000000000e+00  0.0000000000000000e+00  0.0000000000000000e+00  0.0000000000000000e+00  0.0000000000000000e+00  0.0000000000000000e+00  0.0000000000000000e+00  0.0000000000000000e+00  0.0000000000000000e+00  0.0000000000000000e+00  0.0000000000000000e+00  0.0000000000000000e+00  0.0000000000000000e+00  0.0000000000000000e+00  -2.8919493264525281e-02  -2.8826497992775153e-02  -2.8666012890077804e-02  -2.8584197534697219e-02  -2.8581783083433104e-02  -2.8759479006119047e-02  -2.8801057607909884e-02  -2.8911344199243637e-02  -2.8967670547940177e-02  -2.8889018788126084e-02  -2.8719550466195159e-02  -2.8769802146265299e-02  -2.8830093373771327e-02  -2.8660868733512021e-02  -2.8591597736912215e-02  -2.8564575580741030e-02  -2.8438390602292477e-02  -2.8558395876994661e-02  -2.8450983193971022e-02  -2.8415353482681975e-02  -2.8367679305153156e-02  -2.8202342936187477e-02  -2.8376302987170011e-02  -2.8272756503703738e-02  -2.8084859875446486e-02  -2.8252878406597876e-02  -2.8260688004271766e-02  -2.8254982892878883e-02  -2.8253710395391977e-02  -2.8081227683752319e-02  -2.8268793130248788e-02  -2.8367815453299514e-02  -2.8187922537575075e-02  -2.8338733708366606e-02  -2.8367962048652103e-02  -2.8391628313892317e-02  -2.8479026244824606e-02  -2.8335278103180272e-02  -2.8430425679933764e-02  -2.8436327240535915e-02  -2.8488668059225855e-02  -2.8625604266483438e-02  -2.8531393909063864e-02  -2.8464506248413950e-02  -2.8637273042177950e-02  -2.8751893978400445e-02  -2.8768998400458174e-02  -2.8778473089346713e-02  -2.8910564473807868e-02  -2.8937547346106533e-02  -2.8829504369956641e-02  -2.8948608372130848e-02  -2.9086702815507952e-02  -2.9088257996390296e-02  -1.1857388251977472e-02  -1.2738700830989748e-02  -1.3399855664703553e-02  -1.4168687200183735e-02  -1.2946296981363374e-02  -1.2935575165162623e-02  -1.3099368035023982e-02  -1.2996608312410238e-02  -1.6016138043734345e-02  -1.8567477675065946e-02  -1.8817368578514512e-02  -1.6925632897088306e-02  -1.9082757821162651e-02  -1.9061762432429654e-02  -1.7314999072572029e-02  -1.7365329716198627e-02  -1.7557819867510462e-02  -1.7586421975417731e-02  -1.8230371667472177e-02  -1.8674000383321745e-02  -1.7673028551120150e-02  -1.7769217810679229e-02  -1.8860554944454353e-02  -1.9777014635766092e-02  -1.9790049245737785e-02  -2.0202974030686067e-02  -2.0896630055401710e-02  -1.8928129440705016e-02  -1.9013443471898601e-02  -2.1001193323943002e-02  -7.9334897669537455e-03  -2.0482333814561316e-02  -2.0768781866694092e-02  -1.9993535077322898e-02  -1.9825735002006378e-02  -7.1594252930781508e-03  -7.1443986720568916e-03  -2.2112554318135091e-02  -2.1856464569663239e-02  -8.0625416950222979e-03  -7.1633415793038472e-03  -2.0295815257738690e-02  -2.0425344256830551e-02  -1.1735782995932219e-02  -1.1445159062652118e-02  -2.0580734008535832e-02  -2.0439238398308829e-02  -1.1386453450067873e-02  -1.2308451892499425e-02  -1.0295305313603917e-02  -2.1690504331074171e-02  -2.1914246690229539e-02  -1.2427139930405343e-02  -1.2665601786109988e-02  -2.1595077701897392e-02  -2.1588873553184864e-02  -1.3689794857741308e-02  -2.1897993572074281e-02  -2.3064200159186515e-02  -2.3317052225442263e-02  -1.7514767698453063e-02  -1.7909769160764505e-02  -2.1008904735406571e-02  -2.0971176806828976e-02  -2.1110155647780880e-02  -2.1037040185213025e-02  -2.2916269092231045e-02  -2.1845587160418588e-02  -2.3018500497812146e-02  -6.8684961234515831e-03  -2.3097722289280729e-02  -2.1766055167208295e-02  -1.1797234259403513e-02  -2.3021366582310552e-02  -2.2836090598594656e-02  -1.5698708589880195e-02  -1.8173540709628667e-02  -1.6531054226289619e-02  -1.6378149850780673e-02  -1.5927186591246860e-02  -1.5573000363414637e-02  -1.5943612327016882e-02  -1.5294153138264500e-02  -1.5355926817051162e-02  -1.5751096386885783e-02  -1.5942141740996028e-02  -1.5006743952750631e-02  -1.6566656048073197e-02  -2.1707340322734543e-02  -2.2978784256726854e-02  -2.2747470826602136e-02  -1.5275682812672336e-02  -1.6185943301661863e-02  -2.1900276143706342e-02  -2.1688529040911380e-02  -7.4281594312942366e-03  -1.5644762678536307e-02  -1.5743135251505259e-02  -1.4262078219020277e-02  -2.3160373617711168e-02  -2.3163467902332764e-02  -1.7752258414937522e-02  -2.2205821957592534e-02  -2.2616914486115299e-02  -2.2745018891215291e-02  -2.2663419196420388e-02  -1.6865033341444530e-02  -1.8352483499596183e-02  -1.8601447964080829e-02  -2.4890295975490216e-02  -2.3842163210461821e-02  -2.4092828244868168e-02  -2.3907988439899407e-02  -2.3507550009658210e-02  -2.3780678361110977e-02  -2.2829127987430260e-02  -2.2783768519661830e-02  -1.7310503589445084e-02  -1.7810110320874522e-02  -1.7815208895334812e-02  -1.0603103752472937e-02  -1.7345425539472145e-02  -1.7119003705073115e-02  -1.8384367173449344e-02  -8.5691344423215847e-03  -1.6231789446701100e-02  -1.6131385580296431e-02  -1.3628737109876754e-02  -1.6206936038173903e-02  -1.6441301438209783e-02  -2.3872584115279923e-02  -2.4021475339443623e-02  -2.4671511954876740e-02  -2.3189298706344071e-02  -2.3199424263457658e-02  -1.8376906270765415e-02  -8.9941002429275163e-03  -1.8908175692267284e-02  -1.8317896827006529e-02  -2.0404368249167696e-02  -2.0685752512478464e-02  -2.3648937569727330e-02  -1.5573447628534458e-02  -2.4395574884670677e-02  -2.4121408288915461e-02  -1.9145315336278459e-02  -1.9439292559320247e-02  -9.4559520315083342e-03  -1.0517375012773993e-02  -2.4684195448499594e-02  -2.4620920237671526e-02  -1.5917332119512302e-02  -9.4016433269698742e-03  -8.8557455453442870e-03  -2.0929441925875321e-02  -2.1264218293373303e-02  -1.6653584395088305e-02  -2.5126733034326443e-02  -2.0188137294018086e-02  -1.5012058329886158e-02  -1.4880080161742458e-02  -2.3569062485622169e-02  -6.4387815956446328e-03  -2.3858334092327411e-02  -2.3865639311328950e-02  -1.8068128756041985e-02  -1.8050586695587057e-02  -2.1156512677984525e-02  -2.0949996312449457e-02  -9.4200206906555131e-03  -1.8208303270208764e-02  -1.8066142643751518e-02  -1.4434774299523894e-02  -2.4572991120749076e-02  -2.4746138880145159e-02  -2.4186103684473378e-02  -2.3944617635759870e-02  -2.4474885738590618e-02  -2.4380496506653453e-02  -1.4353032598420688e-02  -1.3090030035090587e-02  -1.8258698326674625e-02  -1.8214419907838800e-02  -2.4449396557307036e-02  -9.5919804122549350e-03  -1.4187920641805636e-02  -1.2808134886617166e-02  -1.8397054275728859e-02  -1.4627615498911629e-02  -1.4702243913796141e-02  -6.4148370173466879e-03  -1.7337288810172831e-02  -1.7524657364296710e-02  -2.3470129475261569e-02  -2.3443582049060260e-02  -2.4272390024867398e-02  -5.0799536266023605e-02  -5.1022847067612044e-02  -5.1398516915215589e-02  -5.1903155788540968e-02  -4.5431641364193309e-02  -4.4652872172500815e-02  -4.5799359911220951e-02  -4.5749747814770723e-02  -4.6064487974746854e-02  -4.6236410537075383e-02  -4.7393911414371832e-02  -4.7248169448172166e-02  -3.9482642686469567e-02  -3.9475845481980833e-02  -3.8964523106237450e-02  -4.0260080694880740e-02  -4.9638726096279936e-02  -4.9246054749127272e-02  -4.9724393350903222e-02  -5.0310979894018955e-02  -4.6768415295687607e-02  -4.6328573352097523e-02  -4.7046611827977827e-02  -4.6924388762062355e-02  -4.3102465876815078e-02  -4.2573740866435492e-02  -4.0897950637840408e-02  -4.1723849413614643e-02  -4.1118787757638185e-02  -4.2161777578543155e-02  -4.2754413486297563e-02  -4.2532009956448430e-02  -3.8818422599410846e-02  -3.1545855293557488e-02  -3.9065358173842622e-02  -3.1796683684218049e-02  -4.2656350579911018e-02  -4.2666804589022896e-02  -3.0580870740676044e-02  -3.0378395919600568e-02  -4.2517644944120567e-02  -4.3119433132376844e-02  -3.7606038438833790e-02  -3.7276591516185384e-02  -4.1193044210482831e-02  -3.7945370264650606e-02  -3.8232711064936011e-02  -3.9839549309072797e-02  -3.9748115815224166e-02  -3.8179722619802889e-02  -3.8726518367632599e-02  -3.7198476922266861e-02  -3.7073002407310152e-02  -3.9600174763721289e-02  -3.1516499481479041e-02  -3.3285446266086476e-02  -3.1153769902638715e-02  -3.1085344767877197e-02  -3.0699826799858904e-02  -3.0185283426548387e-02  -5.0928705891878596e-02  -5.0244498875708248e-02  -5.1243085207854401e-02  -5.1345646974547701e-02  -4.1185212949703912e-02  -4.0731421419670399e-02  -4.0661138262630479e-02  -4.0211832050404669e-02  -5.0244010835304456e-02  -5.0361770160174089e-02  -5.2758954548662425e-02  -5.2413119617619672e-02  -4.2857488437795625e-02  -4.3173844608704617e-02  -3.0570849016124235e-02  -3.1057123134830528e-02  -3.0097206709504696e-02  -2.9554730312638198e-02  -4.0224248884377672e-02  -4.0230338466326732e-02  -2.8983870845242007e-02  -2.9222842906057991e-02  -3.9340468400517192e-02  -3.9769259247124454e-02  -3.6894323328206233e-02  -4.1905957530747703e-02  -3.6687388447331049e-02  -4.1864661674620253e-02  -3.7312119176886850e-02  -3.7154226249282107e-02  -3.6674932651774961e-02  -3.7052904828119765e-02  -3.7673672976268689e-02  -3.7385831092907509e-02  -3.8244154669537074e-02  -3.8700797607926586e-02  -4.2085999860870298e-02  -4.1631269838186831e-02  -4.2557878733216682e-02  -4.2276984856632130e-02  -3.7126969310001721e-02  -3.7432066260221289e-02  -4.2523134954344274e-02  -4.2568324088429671e-02  -3.6858171498779520e-02  -3.6498688918054543e-02  -4.7792588540150352e-02  -4.7437915345157497e-02  -3.7486614953381903e-02  -3.7458851969490968e-02  -3.5925859561286584e-02  -3.6178046507530572e-02  -2.5574632394398299e-02  -2.5786950446890767e-02  -4.9911622047705689e-02  -4.9166300232466154e-02  -3.7328941399123787e-02  -3.7223709786225995e-02  -2.6008376850995201e-02  -2.6105046565174962e-02  -2.5479047888865271e-02  -2.5635329565918612e-02  -2.4068290793972831e-02  -4.4396242672145071e-02  -4.4249342801169864e-02  -4.3127943734031546e-02  -4.2782255740875443e-02  -4.3160520767887900e-02  -4.3354877666846044e-02  -4.1707697301025762e-02  -4.1996771978574148e-02  -5.1289204811545044e-02  -5.1022855573422142e-02  -5.2315109280994018e-02  -5.1923916980938449e-02  -3.6096445028417724e-02  -3.5828553030138502e-02  -4.1877242898237216e-02  -4.2637415827308116e-02  -3.6195168168255777e-02  -3.6616603936311484e-02  -2.5352017704224655e-02  -2.5002900981509077e-02  -2.5199099983327401e-02  -1.3935612842556549e-02  -1.4015851180319413e-02  -1.3920704429400516e-02  -1.3850634377544687e-02  -2.3343929035629908e-02  -2.3589950202344143e-02  -4.6658132322176596e-02  -4.6450736730244149e-02  -4.7327293780827992e-02  -4.7265799150689208e-02  -4.6168007517376895e-02  -4.5934591211358122e-02  -5.2947520768899352e-02  -5.3547739716098830e-02  -4.4942821885168967e-02  -4.4645070188093904e-02  -5.2788867027938877e-02  -5.2799192779295914e-02  -3.5886891231144608e-02  -3.5837823996661175e-02  -2.8247663014184684e-02  -2.8278736073141904e-02  -3.5655427031530663e-02  -3.5310749216064495e-02  -3.4318090806990019e-02  -3.9061205797112926e-02  -3.8355598389801099e-02  -2.2819254768068675e-02  -2.2947367368413636e-02  -4.7581044932257115e-02  -4.7856242237463750e-02  -4.3219038382154018e-02  -4.3445452775989032e-02  -4.6853638270365427e-02  -4.6084976924688568e-02  -4.3476827958909517e-02  -4.4137349856520347e-02  -3.5735420947058748e-02  -3.5441251343515653e-02  -4.0806569436224183e-02  -4.0807167863576320e-02  -4.2161088126056581e-02  -4.2944575649261268e-02  -2.7223634089763683e-02  -2.3995688090127053e-02  -2.4246745351124855e-02  -4.8624573788413630e-02  -4.8982038331569687e-02  -2.3839907274268792e-02  -2.3531354017869412e-02  -2.2977998123834189e-02  -2.2657326414708627e-02  -3.6656349252244425e-02  -4.7334050934712116e-02  -4.6767609890845899e-02  -2.2568424268135930e-02  -2.2356625468989977e-02  -3.5924351942191381e-02  -4.3715762844776455e-02  -3.5780508124039059e-02  -4.3542335467646368e-02  -2.2281535961628473e-02  -2.2460803171537577e-02  -4.0693322244130498e-02  -4.0537172153350544e-02  -4.0957057606732204e-02  -4.0927518569553040e-02  -3.4805801729815442e-02  -3.4655706275842413e-02  -4.7818089274640992e-02  -4.7565609178043256e-02  -3.4858043990045419e-02  -4.2491193816754036e-02  -3.4561343702190397e-02  -4.1965444694821892e-02  -3.8161213076757010e-02  -3.8692584904595206e-02  -1.8904029323760771e-02  -2.0251792838745612e-02  -2.3716638849851326e-02  -2.3808977573024703e-02  -2.1746129344234959e-02  -2.1892642191162767e-02  -4.2125634171226556e-02  -4.2162217562273563e-02  -4.1802683990454524e-02  -4.2316720627533194e-02  -4.2050290468696655e-02  -4.1952456879786035e-02  -2.2630168119959087e-02  -2.2258523578124648e-02  -4.5543074026662356e-02  -4.5472453585954892e-02  -5.0565183230164630e-02  -5.0515186555584235e-02  -4.6455281709888323e-02  -4.6644840017782657e-02  -3.4757014294325449e-02  -3.4398063959142591e-02  -4.8665785006223435e-02  -4.8208073304847270e-02  -5.1618904247705995e-02  -5.1877577400125087e-02  -3.5558045773229588e-02  -3.5349961352486615e-02  -3.3916192523398080e-02  -3.3656082710979265e-02  -3.9315900806115786e-02  -3.9137544319334666e-02  -1.6123733029942165e-02  -1.6041586183443049e-02  -3.4333712676706034e-02  -3.4178580895421154e-02  -4.6540951955940123e-02  -4.5151406436514718e-02  -4.7148666619795797e-02  -4.5625793658378586e-02  -5.0742123365793951e-02  -5.0624374093590753e-02  -5.2825135082372153e-02  -5.2735074129464876e-02  -3.2827170751243931e-02  -3.2587021495662956e-02  -3.8030957641147403e-02  -3.7374661304051378e-02  -5.0048315601288966e-02  -4.9659046576171734e-02  -5.3406565650948257e-02  -5.3873831018371475e-02  -4.4773954615425111e-02  -4.5538163087953991e-02  -4.2282022137146984e-02  -4.1728314722056431e-02  -3.3621114790712815e-02  -1.9341197305056915e-02  -1.9344446166266654e-02  -3.5313619691564602e-02  -2.0259344253554523e-02  -2.0498281960635533e-02  -2.0116791459975192e-02  -1.6839139091301868e-02  -1.5099440701822703e-02  -1.5189429738141493e-02  -3.4207593958650917e-02  -3.4431274826377721e-02  -1.5528051779757380e-02  -1.5650359209497165e-02  -1.9934295286330807e-02  -1.9013726640024604e-02  -1.9206976965963681e-02  -3.3388480474055571e-02  -3.3101912908347582e-02  -1.6329128783805651e-02  -1.6421547276506611e-02  -4.0723277026861293e-02  -4.0369972858677640e-02  -4.3009402874312118e-02  -4.2706094063285474e-02  -5.1527711803639124e-02  -5.2200261971348270e-02  -4.1051079905664173e-02  -4.1076101198515479e-02  -4.2707137382747416e-02  -4.8907167625179673e-02  -4.8959132763643963e-02  -4.5615833202313792e-02  -4.5589847837296679e-02  -4.1389870099684901e-02  -3.2368804410510134e-02  -3.2186511112788668e-02  -4.8711082868195914e-02  -4.7961043967556544e-02  -3.4046893121288349e-02  -3.3793778127319221e-02  -1.6085827285758029e-02  -1.6130639498905221e-02  -3.3426932136036105e-02  -3.3256094989798896e-02  -1.6832689876106928e-02  -1.6630430981483924e-02  -3.3534595570673523e-02  -3.3401357620838568e-02  -4.2824009344627753e-02  -1.8873314160938560e-02  -3.8207985320849694e-02  -3.7891602978316154e-02  -3.5455306476001147e-02  -3.5532107035440436e-02  -3.8222607021831979e-02  -3.8214642480488455e-02  -3.9269053805462570e-02  -4.2747833769212117e-02  -3.9724227613940954e-02  -4.3363245127169006e-02  -5.0342398901584540e-02  -5.0098150069774694e-02  -4.6211533019844465e-02  -4.6650349901943819e-02  -4.2916877846190228e-02  -4.2969724962725393e-02  -3.8875833707984538e-02  -3.8615335955694573e-02  -4.6385050220563641e-02  -4.5872518281802541e-02  -4.8765659892076749e-02  -4.8617893067287171e-02  -4.2048831009869343e-02  -4.2527676784997838e-02  -3.4208741505294439e-02  -3.4480611090483969e-02  -3.6273776097910430e-02  -3.5987816175655898e-02  -3.6656588233692979e-02  -3.6905886283129144e-02  -4.5932360514493301e-02  -4.5650191570556102e-02  -3.2764153301159941e-02  -3.2657091012906675e-02  -3.3852825710753015e-02  -3.3675431045150653e-02  -4.2289037237062149e-02  -4.2638990378253562e-02  -4.1929340767587017e-02  -4.1919853289681001e-02  -1.8119833886746782e-02  -1.7997697179129361e-02  -3.6533114993905734e-02  -3.6905374998200333e-02  -3.7482397829141333e-02  -3.7234761530493640e-02  -4.0663705224784574e-02  -4.04548565865