<?xml version="1.0"?>
<VTKFile type="UnstructuredGrid"  version="0.1"  >
<UnstructuredGrid>
<Piece  NumberOfPoints="1286" NumberOfCells="2474">
<Points>
<DataArray  type="Float64"  NumberOfComponents="3"  format="ascii">0 0 0  0 1 0  1 1 0  1 0 0  1.1 -0.1 0  -0.1 -0.1 0  1.1 1.1 0  -0.1 1.1 0  0.2507348693755453 0.4964314035512146 0  0.4998608888523975 0.4990500937276832 0  0 0.9499999999997918 0  0 0.8999999999995836 0  0 0.8499999999996529 0  0 0.7999999999999998 0  0 0.7500000000003466 0  0 0.7000000000006934 0  0 0.6500000000010401 0  0 0.6000000000013869 0  0 0.5500000000017335 0  0 0.5000000000020587 0  0 0.4500000000018723 0  0 0.4000000000016644 0  0 0.3500000000014564 0  0 0.3000000000012483 0  0 0.2500000000010403 0  0 0.2000000000008322 0  0 0.1500000000006241 0  0 0.100000000000416 0  0 0.05000000000020799 0  0.04999999999989965 0 0  0.09999999999981467 0 0  0.1499999999997036 0 0  0.1999999999995579 0 0  0.2499999999994121 0 0  0.2999999999992664 0 0  0.3499999999991206 0 0  0.3999999999989749 0 0  0.4499999999988292 0 0  0.4999999999986943 0 0  0.5499999999988151 0 0  0.5999999999989468 0 0  0.6499999999990784 0 0  0.69999999999921 0 0  0.7499999999993417 0 0  0.7999999999994734 0 0  0.8499999999996051 0 0  0.8999999999997368 0 0  0.9499999999998684 0 0  1 0.04999999999989965 0  1 0.09999999999981467 0  1 0.1499999999997036 0  1 0.1999999999995579 0  1 0.2499999999994121 0  1 0.2999999999992664 0  1 0.3499999999991206 0  1 0.3999999999989749 0  1 0.4499999999988292 0  1 0.4999999999986943 0  1 0.5499999999988151 0  1 0.5999999999989468 0  1 0.6499999999990784 0  1 0.69999999999921 0  1 0.7499999999993417 0  1 0.7999999999994734 0  1 0.8499999999996051 0  1 0.8999999999997368 0  1 0.9499999999998684 0  0.9499999999997918 1 0  0.8999999999995836 1 0  0.8499999999996529 1 0  0.7999999999999998 1 0  0.7500000000003466 1 0  0.7000000000006934 1 0  0.6500000000010401 1 0  0.6000000000013869 1 0  0.5500000000017335 1 0  0.5000000000020587 1 0  0.4500000000018723 1 0  0.4000000000016644 1 0  0.3500000000014564 1 0  0.3000000000012483 1 0  0.2500000000010403 1 0  0.2000000000008322 1 0  0.1500000000006241 1 0  0.100000000000416 1 0  0.05000000000020799 1 0  -0.1 1.05000000000004 0  -0.1 1.000000000000079 0  -0.1 0.9500000000001624 0  -0.1 0.9000000000003032 0  -0.1 0.850000000000444 0  -0.1 0.8000000000005848 0  -0.1 0.7500000000007256 0  -0.1 0.7000000000008665 0  -0.1 0.6500000000010508 0  -0.1 0.6000000000012352 0  -0.1 0.5500000000014196 0  -0.1 0.500000000001539 0  -0.1 0.4500000000014195 0  -0.1 0.4000000000013 0  -0.1 0.3500000000011588 0  -0.1 0.3000000000010178 0  -0.1 0.2500000000008986 0  -0.1 0.2000000000007579 0  -0.1 0.1500000000006174 0  -0.1 0.1000000000005272 0  -0.1 0.05000000000040083 0  -0.1 2.671196597248127e-13 0  -0.1 -0.0499999999998666 0  -0.0500000000000906 -0.1 0  -1.730560139634463e-13 -0.1 0  0.04999999999975802 -0.1 0  0.09999999999961506 -0.1 0  0.1499999999994613 -0.1 0  0.199999999999302 -0.1 0  0.2499999999991446 -0.1 0  0.2999999999990088 -0.1 0  0.3499999999988296 -0.1 0  0.3999999999986936 -0.1 0  0.4499999999985143 -0.1 0  0.4999999999984002 -0.1 0  0.5499999999985247 -0.1 0  0.5999999999986493 -0.1 0  0.6499999999987955 -0.1 0  0.6999999999989417 -0.1 0  0.7499999999990659 -0.1 0  0.7999999999992116 -0.1 0  0.8499999999993573 -0.1 0  0.8999999999994526 -0.1 0  0.949999999999584 -0.1 0  0.9999999999997226 -0.1 0  1.049999999999861 -0.1 0  1.1 -0.0500000000000906 0  1.1 -1.730560139634463e-13 0  1.1 0.04999999999975802 0  1.1 0.09999999999961506 0  1.1 0.1499999999994613 0  1.1 0.199999999999302 0  1.1 0.2499999999991446 0  1.1 0.2999999999990088 0  1.1 0.3499999999988296 0  1.1 0.3999999999986936 0  1.1 0.4499999999985143 0  1.1 0.4999999999984002 0  1.1 0.5499999999985247 0  1.1 0.5999999999986493 0  1.1 0.6499999999987955 0  1.1 0.6999999999989417 0  1.1 0.7499999999990659 0  1.1 0.7999999999992116 0  1.1 0.8499999999993573 0  1.1 0.8999999999994526 0  1.1 0.949999999999584 0  1.1 0.9999999999997226 0  1.1 1.049999999999861 0  1.05000000000004 1.1 0  1.000000000000079 1.1 0  0.9500000000001624 1.1 0  0.9000000000003032 1.1 0  0.850000000000444 1.1 0  0.8000000000005848 1.1 0  0.7500000000007256 1.1 0  0.7000000000008665 1.1 0  0.6500000000010508 1.1 0  0.6000000000012352 1.1 0  0.5500000000014196 1.1 0  0.500000000001539 1.1 0  0.4500000000014195 1.1 0  0.4000000000013 1.1 0  0.3500000000011588 1.1 0  0.3000000000010178 1.1 0  0.2500000000008986 1.1 0  0.2000000000007579 1.1 0  0.1500000000006174 1.1 0  0.1000000000005272 1.1 0  0.05000000000040083 1.1 0  2.671196597248127e-13 1.1 0  -0.0499999999998666 1.1 0  0.2537978299923093 0.4667610300589871 0  0.2605608662322704 0.4382867463347799 0  0.2704729540003686 0.411300456020596 0  0.2830312438853129 0.3859822484482284 0  0.2976939118110529 0.3625621311865626 0  0.3140720449336477 0.3411806267393461 0  0.3315910204359863 0.3221799386863152 0  0.3518298307239043 0.3040231100650539 0  0.3741882142669485 0.2877060206148722 0  0.3982541596125809 0.2737765581142736 0  0.4239160195264783 0.2625402875930152 0  0.4507524120386164 0.2543988318974619 0  0.4787591479639799 0.2496973318559204 0  0.5077433060907591 0.2489162661551103 0  0.5360475026378392 0.2520996394593575 0  0.5635851054494088 0.2589372363518686 0  0.5899505661503261 0.2690660561227526 0  0.6148140330138844 0.2819454480394431 0  0.6382358105833249 0.2973995147626869 0  0.6599835205631075 0.3151501155858258 0  0.6797011271698914 0.3347469694248487 0  0.6976705723384169 0.3564398950590842 0  0.7132624059434417 0.3795812967638416 0  0.7263929774274259 0.4041775881291584 0  0.7367643073321954 0.4301133913372864 0  0.7441073552730509 0.4572116501935916 0  0.7479715110832909 0.4852283206075926 0  0.7480376175286935 0.5138607021309245 0  0.7443524138625539 0.541624879788684 0  0.7370197444491133 0.5691752399343428 0  0.7266652838735798 0.5952803200329949 0  0.7134924344037183 0.6200534115494095 0  0.6977400942281061 0.6434341716014338 0  0.6797715365134857 0.6650758223019981 0  0.6598905272791876 0.6847609968409845 0  0.6379744533399793 0.7025422990381871 0  0.6145369216451307 0.7178971328981028 0  0.5892929790962822 0.7308596367542576 0  0.5628921651935797 0.7408839560330933 0  0.5349331781375516 0.7477139047815972 0  0.5062632167391606 0.7508050499330783 0  0.4772593329476758 0.7498994124618797 0  0.4490003154727379 0.7450613697728136 0  0.421962350995663 0.7368073940329685 0  0.396065049255072 0.725486307838063 0  0.3715864811326027 0.7114185847460571 0  0.3485500503364541 0.6947641437607123 0  0.3273707819680686 0.6759005789611329 0  0.3083221498650949 0.655133660585528 0  0.291211618836804 0.6320889357043459 0  0.276772414033054 0.6075716597308752 0  0.2651416508302123 0.58146700326073 0  0.2566677421668529 0.5541469165109486 0  0.2517419514805711 0.525697207969593 0  0.5015722863152443 0.6291041670698349 0  0.5092681196669072 0.3628639210063923 0  0.6447482012539386 0.4978419866140313 0  0.3495620539983356 0.4977133096727076 0  0.3987996696974072 0.4084704073350596 0  0.393753853587882 0.5882989346183272 0  0.5902215590038465 0.3929338856965238 0  0.5892427672571559 0.606315515738182 0  0.432497101417511 0.6545381704289976 0  0.4849326674399243 0.69076949419392 0  0.5454863684440219 0.6878340984233525 0  0.4299130968724219 0.3407157388097465 0  0.4870860581373866 0.3064159945392041 0  0.5485931194752789 0.3113795847322063 0  0.6570115490454344 0.5909241238304644 0  0.6574660875200075 0.4089243418997703 0  0.3368238723645351 0.5781588630057737 0  0.339654945718364 0.4172327867132234 0  0.3782074058484458 0.642704474975815 0  0.3813388368147401 0.3528360403709264 0  0.5947351513029737 0.6580871740995683 0  0.5955744239599517 0.3414717000824709 0  0.6955037962200442 0.4997509999748772 0  0.6943846342029562 0.5542265748820878 0  0.6944365237490168 0.4459541797805593 0  0.3037860669276111 0.4506891510222814 0  0.2928637226401971 0.5029874195774898 0  0.6378765893270915 0.3649018459922504 0  0.6378692231660228 0.6357509828334792 0  0.2996636077350219 0.5538160941076707 0  0.42383326961329 0.5122762240163029 0  0.4408478614590219 0.6979128393593709 0  0.4428765635015202 0.3009865085758786 0  0.3462261667102204 0.3748977192620752 0  0.3426499571203699 0.6214768414730275 0  0.5630344407967615 0.5239013065362684 0  0.5213232050490236 0.4396559040150688 0  0.5201095616172874 0.2834454531175603 0  0.5181311283214343 0.7157363839489964 0  0.4676114284828845 0.5749891311891475 0  0.4694801245834617 0.4445764184065543 0  0.3957880101063627 0.6738952770203245 0  0.3985572919026137 0.3251294936188977 0  0.6161456215634186 0.4491828252178916 0  0.6145185828600258 0.5477901192754018 0  0.5810156628936535 0.3109733173529765 0  0.5803225434719664 0.6884152464436395 0  0.3824002552469568 0.5356550222119268 0  0.3767450314124616 0.4560897071862223 0  0.4420289182774561 0.40716859901346 0  0.7131237871936787 0.5290927567485496 0  0.7140043329400182 0.4686967692550408 0  0.5505578474094968 0.624207694087626 0  0.553573567331726 0.3740630849751984 0  0.6950773770125052 0.5874300085613899 0  0.694645463769179 0.4116164066475301 0  0.4193273983242598 0.6216772162448143 0  0.3042339594450829 0.4150558731500226 0  0.472886767093936 0.7242678344086138 0  0.4742469196794227 0.2750770904432644 0  0.4588339421739238 0.6776671432769068 0  0.4576143761605035 0.3216747544160902 0  0.6668896139388448 0.3758647013502705 0  0.6671148866921214 0.6233197181803102 0  0.6279534380148555 0.3334261227666567 0  0.6279984090755106 0.6659039081440375 0  0.2808506780821634 0.4683588361144972 0  0.3045892127817739 0.5844653391873463 0  0.7244735654698753 0.4993491597005522 0  0.5167513380659564 0.5635310238144378 0  0.2803074603945859 0.532654655748971 0  0.3209957794129126 0.388383945298921 0  0.45515684801755 0.6194101691048299 0  0.5653040085436352 0.2864330920341682 0  0.5638279542233662 0.7131214602871697 0  0.3411080163821231 0.5394453393279288 0  0.3153621076722117 0.524187186325757 0  0.5660294042317319
[...]
<PointData  Scalars="state"> 
<DataArray  type="Float64"  Name="state"  format="ascii">0.0000000000000000e+00  0.0000000000000000e+00  0.0000000000000000e+00  0.0000000000000000e+00  0.0000000000000000e+00  0.0000000000000000e+00  0.0000000000000000e+00  0.0000000000000000e+00  -2.8486913121482493e-02  -5.2680065588024084e-03  0.0000000000000000e+00  0.0000000000000000e+00  0.0000000000000000e+00  0.0000000000000000e+00  0.0000000000000000e+00  0.0000000000000000e+00  0.0000000000000000e+00  0.0000000000000000e+00  0.0000000000000000e+00  0.0000000000000000e+00  0.0000000000000000e+00  0.0000000000000000e+00  0.0000000000000000e+00  0.0000000000000000e+00  0.0000000000000000e+00  0.0000000000000000e+00  0.0000000000000000e+00  0.0000000000000000e+00  0.0000000000000000e+00  0.0000000000000000e+00  0.0000000000000000e+00  0.0000000000000000e+00  0.0000000000000000e+00  0.0000000000000000e+00  0.0000000000000000e+00  0.0000000000000000e+00  0.0000000000000000e+00  0.0000000000000000e+00  0.0000000000000000e+00  0.0000000000000000e+00  0.0000000000000000e+00  0.0000000000000000e+00  0.0000000000000000e+00  0.0000000000000000e+00  0.0000000000000000e+00  0.0000000000000000e+00  0.0000000000000000e+00  0.0000000000000000e+00  0.0000000000000000e+00  0.0000000000000000e+00  0.0000000000000000e+00  0.0000000000000000e+00  0.0000000000000000e+00  0.0000000000000000e+00  0.0000000000000000e+00  0.0000000000000000e+00  0.0000000000000000e+00  0.0000000000000000e+00  0.0000000000000000e+00  0.0000000000000000e+00  0.0000000000000000e+00  0.0000000000000000e+00  0.0000000000000000e+00  0.0000000000000000e+00  0.0000000000000000e+00  0.0000000000000000e+00  0.0000000000000000e+00  0.0000000000000000e+00  0.0000000000000000e+00  0.0000000000000000e+00  0.0000000000000000e+00  0.0000000000000000e+00  0.0000000000000000e+00  0.0000000000000000e+00  0.0000000000000000e+00  0.0000000000000000e+00  0.0000000000000000e+00  0.0000000000000000e+00  0.0000000000000000e+00  0.0000000000000000e+00  0.0000000000000000e+00  0.0000000000000000e+00  0.0000000000000000e+00  0.0000000000000000e+00  0.0000000000000000e+00  0.0000000000000000e+00  0.0000000000000000e+00  0.0000000000000000e+00  0.0000000000000000e+00  0.0000000000000000e+00  0.0000000000000000e+00  0.0000000000000000e+00  0.0000000000000000e+00  0.0000000000000000e+00  0.0000000000000000e+00  0.0000000000000000e+00  0.0000000000000000e+00  0.0000000000000000e+00  0.0000000000000000e+00  0.0000000000000000e+00  0.0000000000000000e+00  0.0000000000000000e+00  0.0000000000000000e+00  0.0000000000000000e+00  0.0000000000000000e+00  0.0000000000000000e+00  0.0000000000000000e+00  0.0000000000000000e+00  0.0000000000000000e+00  0.0000000000000000e+00  0.0000000000000000e+00  0.0000000000000000e+00  0.0000000000000000e+00  0.0000000000000000e+00  0.0000000000000000e+00  0.0000000000000000e+00  0.0000000000000000e+00  0.0000000000000000e+00  0.0000000000000000e+00  0.0000000000000000e+00  0.0000000000000000e+00  0.0000000000000000e+00  0.0000000000000000e+00  0.0000000000000000e+00  0.0000000000000000e+00  0.0000000000000000e+00  0.0000000000000000e+00  0.0000000000000000e+00  0.0000000000000000e+00  0.0000000000000000e+00  0.0000000000000000e+00  0.0000000000000000e+00  0.0000000000000000e+00  0.0000000000000000e+00  0.0000000000000000e+00  0.0000000000000000e+00  0.0000000000000000e+00  0.0000000000000000e+00  0.0000000000000000e+00  0.0000000000000000e+00  0.0000000000000000e+00  0.0000000000000000e+00  0.0000000000000000e+00  0.0000000000000000e+00  0.0000000000000000e+00  0.0000000000000000e+00  0.0000000000000000e+00  0.0000000000000000e+00  0.0000000000000000e+00  0.0000000000000000e+00  0.0000000000000000e+00  0.0000000000000000e+00  0.0000000000000000e+00  0.0000000000000000e+00  0.0000000000000000e+00  0.0000000000000000e+00  0.0000000000000000e+00  0.0000000000000000e+00  0.0000000000000000e+00  0.0000000000000000e+00  0.0000000000000000e+00  0.0000000000000000e+00  0.0000000000000000e+00  0.0000000000000000e+00  0.0000000000000000e+00  0.0000000000000000e+00  0.0000000000000000e+00  0.0000000000000000e+00  0.0000000000000000e+00  0.0000000000000000e+00  0.0000000000000000e+00  0.0000000000000000e+00  0.0000000000000000e+00  0.0000000000000000e+00  0.0000000000000000e+00  0.0000000000000000e+00  0.0000000000000000e+00  0.0000000000000000e+00  -2.8390064716544979e-02  -2.8507923819026986e-02  -2.8579114487436122e-02  -2.8689903375182138e-02  -2.8821634390045470e-02  -2.9046370326558928e-02  -2.9031613028562539e-02  -2.9067311965679469e-02  -2.9018450123400718e-02  -2.8816722136812880e-02  -2.8512259423588711e-02  -2.8424433718904844e-02  -2.8382109403626374e-02  -2.8210490921948293e-02  -2.8288224825320618e-02  -2.8476141682246998e-02  -2.8568281047838779e-02  -2.8887538871194846e-02  -2.8937989363289059e-02  -2.9000526352852218e-02  -2.8990034212118113e-02  -2.8785976948662566e-02  -2.8861057086091570e-02  -2.8611053692834704e-02  -2.8247997484414589e-02  -2.8241546150324405e-02  -2.8111457653865399e-02  -2.8106542173399775e-02  -2.8239428348759515e-02  -2.8249438370350825e-02  -2.8614172054733614e-02  -2.8861111349144281e-02  -2.8788504155359079e-02  -2.8986469252342960e-02  -2.8982695608854272e-02  -2.8917613724528057e-02  -2.8861547252106681e-02  -2.8521726102435994e-02  -2.8413510990974444e-02  -2.8208946511008776e-02  -2.8120069508149968e-02  -2.8276784801726604e-02  -2.8305968553244489e-02  -2.8396713411340747e-02  -2.8712460930055635e-02  -2.8937441630097909e-02  -2.9021178079795554e-02  -2.9027317975375121e-02  -2.9089869180339203e-02  -2.8987614038235351e-02  -2.8700450887593737e-02  -2.8615179067069677e-02  -2.8546499121479243e-02  -2.8406308087268548e-02  -1.1906706061038117e-02  -1.2749671845222793e-02  -1.3591420147082424e-02  -1.3962003025795573e-02  -1.2855545239596059e-02  -1.2860772141276936e-02  -1.3267702959933323e-02  -1.3185001455182562e-02  -1.6005068607511268e-02  -1.8525987659863817e-02  -1.8879342559580754e-02  -1.6855507015662661e-02  -1.8967992708661674e-02  -1.9076013410049327e-02  -1.7589327054521361e-02  -1.7627625013243182e-02  -1.7405669059981106e-02  -1.7474489760406896e-02  -1.8235105967235873e-02  -1.8650662921535607e-02  -1.7898908821993433e-02  -1.7962828013757984e-02  -1.9001130554422974e-02  -1.9978095298234751e-02  -1.9983498870868015e-02  -1.9961538601490591e-02  -2.0531837460111470e-02  -1.9234440187225057e-02  -1.9343998038878214e-02  -2.0705634099401782e-02  -7.8501554867362947e-03  -2.0440491965268939e-02  -2.0639856447724134e-02  -1.9989431258879885e-02  -1.9792313180670314e-02  -7.2857623136469247e-03  -7.1987003334899324e-03  -2.1966168981651900e-02  -2.1779279856483539e-02  -8.0595776732559354e-03  -7.1378563634992747e-03  -2.0322081051432728e-02  -2.0381354040746112e-02  -1.1924786386663425e-02  -1.1639509044760306e-02  -2.0707945981060630e-02  -2.0611527238745948e-02  -1.1250792663625541e-02  -1.2164689892232385e-02  -1.0238089418944028e-02  -2.1800344183768746e-02  -2.2021412251430394e-02  -1.2552528243232757e-02  -1.2762412976164815e-02  -2.1889113623201555e-02  -2.1875816443057711e-02  -1.3664351098752140e-02  -2.1785211407875708e-02  -2.2916977003083809e-02  -2.3081878060734050e-02  -1.7488649799046789e-02  -1.7815039903131397e-02  -2.1372720378359741e-02  -2.1350428892321149e-02  -2.1430128916956812e-02  -2.1387675705853957e-02  -2.2545288422090679e-02  -2.1647363150936575e-02  -2.3062213159558406e-02  -6.9332102547557690e-03  -2.2685624425203527e-02  -2.1754781586977062e-02  -1.1791258969040560e-02  -2.3042161945468331e-02  -2.2911034087138796e-02  -1.5490504391935221e-02  -1.7889473826769881e-02  -1.6634906492092493e-02  -1.6520018965968754e-02  -1.5737029415283592e-02  -1.5603760555823135e-02  -1.5920363186089231e-02  -1.5548391005048791e-02  -1.5593809605719601e-02  -1.5662600447434671e-02  -1.5859940409984945e-02  -1.5219109990515364e-02  -1.6750499653373531e-02  -2.1617350211199468e-02  -2.2903669475686946e-02  -2.2769523177483569e-02  -1.5483445355675727e-02  -1.6371625873227207e-02  -2.1944917645708880e-02  -2.1726137858850449e-02  -7.5528062115569877e-03  -1.5880666288537439e-02  -1.5954533185775940e-02  -1.4198176393784958e-02  -2.3379504002296679e-02  -2.3377621322971380e-02  -1.7484854929948754e-02  -2.2282558201198201e-02  -2.2646778147154191e-02  -2.2996383108739700e-02  -2.2956669058064448e-02  -1.6860968205618231e-02  -1.8347915482264627e-02  -1.8536005293185737e-02  -2.4380048088389839e-02  -2.3609987917758972e-02  -2.3829364065386615e-02  -2.3724026905369584e-02  -2.3407603683321860e-02  -2.3580144045603147e-02  -2.3250149604390345e-02  -2.3229719507114024e-02  -1.7258512808956877e-02  -1.8045507893575941e-02  -1.8055415610804836e-02  -1.0567043991333102e-02  -1.7297690602216233e-02  -1.7076415875459969e-02  -1.8214624704461804e-02  -8.4794121008247032e-03  -1.6265646939969357e-02  -1.6212786499221220e-02  -1.3579041945114364e-02  -1.6204071849826078e-02  -1.6379421904679291e-02  -2.3816477394702759e-02  -2.3896752886217201e-02  -2.4302415110951478e-02  -2.3591136439072739e-02  -2.3589848783544025e-02  -1.8151855771435001e-02  -8.9935751566499154e-03  -1.9072273057240716e-02  -1.8482271575027784e-02  -2.0331961498238689e-02  -2.0532532683109804e-02  -2.3750053187635546e-02  -1.5543900844906077e-02  -2.4253295927717692e-02  -2.4090721056520662e-02  -1.9136210367740398e-02  -1.9352185898333509e-02  -9.6040399252373971e-03  -1.0378552494389884e-02  -2.4693948308836994e-02  -2.4634154139755168e-02  -1.5861798904318276e-02  -9.5298649393753317e-03  -8.7921224909980507e-03  -2.0839033367099927e-02  -2.1097374314965764e-02  -1.6824867655883442e-02  -2.4639504951428748e-02  -1.9869022306944827e-02  -1.5169451523786083e-02  -1.5064950797692721e-02  -2.3592109200333132e-02  -6.3989670278563520e-03  -2.3992967295733216e-02  -2.3997699086649133e-02  -1.8360877658553217e-02  -1.8360190580066011e-02  -2.1094592940001537e-02  -2.0948904623329514e-02  -9.5866618376548394e-03  -1.8146189109061309e-02  -1.7971718259376018e-02  -1.4434837457750876e-02  -2.4410100523090322e-02  -2.4508393827162221e-02  -2.4199085194665591e-02  -2.4045568527671004e-02  -2.4641633301956501e-02  -2.4598108589221446e-02  -1.4572150758847657e-02  -1.3285195170814027e-02  -1.8517402924835807e-02  -1.8501236142829770e-02  -2.4174409764857893e-02  -9.6511257241848510e-03  -1.4416834273106470e-02  -1.3014403561165290e-02  -1.8159470701265428e-02  -1.4490439645802679e-02  -1.4580876956021786e-02  -6.3949082136022708e-03  -1.7534372645844370e-02  -1.7724988653929165e-02  -2.3921762869111723e-02  -2.3915728860896032e-02  -2.4297245986316777e-02  -5.0918759642839519e-02  -5.1116934778973541e-02  -5.1140430216794285e-02  -5.1439789987430769e-02  -4.4848903920077780e-02  -4.4299265200481427e-02  -4.6030832309376817e-02  -4.5996220667703688e-02  -4.6397202535476675e-02  -4.6553552130173023e-02  -4.7273666163154537e-02  -4.7257940577168665e-02  -3.9875244049240109e-02  -3.9837665359914787e-02  -3.9563631989324152e-02  -3.9886987870387670e-02  -4.9810253808724191e-02  -4.9399806006555129e-02  -4.9342967097206224e-02  -4.9671997620218983e-02  -4.7034015556576582e-02  -4.6579909973980212e-02  -4.6682118769931016e-02  -4.6745594343090544e-02  -4.2551669471537767e-02  -4.2172198316217317e-02  -4.1280639506240155e-02  -4.1993779236775497e-02  -4.1477960347183561e-02  -4.2425925625485701e-02  -4.3238957375380575e-02  -4.3006781235832459e-02  -3.8740269814770328e-02  -3.1444418630173318e-02  -3.8874283399836965e-02  -3.1608732103533425e-02  -4.2677418176187823e-02  -4.2793790484138609e-02  -3.0614602794784628e-02  -3.0423978726993480e-02  -4.2141045851398981e-02  -4.2560191894013250e-02  -3.7724857289334404e-02  -3.7412734078744549e-02  -4.0746006064230254e-02  -3.8045490692645019e-02  -3.8314026377215198e-02  -4.0077589320530488e-02  -4.0046479694865578e-02  -3.7940003861923498e-02  -3.8314690104457441e-02  -3.7535992734300513e-02  -3.7411985687119759e-02  -4.0190536645455639e-02  -3.1892085972970691e-02  -3.3655528148280531e-02  -3.1259904439954037e-02  -3.1247048187051898e-02  -3.0459307651741038e-02  -2.9843508886192877e-02  -5.0328989360122492e-02  -4.9893327662438682e-02  -5.1432529319387660e-02  -5.1510902233313616e-02  -4.1430714739198633e-02  -4.1028992563087202e-02  -4.0915198761229572e-02  -4.0516623612031712e-02  -5.0390593100967655e-02  -5.0484188044297794e-02  -5.2367166573734789e-02  -5.2215232657058200e-02  -4.2626679551396783e-02  -4.2770028192575478e-02  -3.0795292057026483e-02  -3.1269216722244246e-02  -2.9731340939248924e-02  -2.9337370587857570e-02  -4.0201822863701990e-02  -4.0062446727381379e-02  -2.9167840075103774e-02  -2.9393017359219151e-02  -3.9697827419770029e-02  -4.0135246281772841e-02  -3.7325758398340667e-02  -4.2516596259598562e-02  -3.7105621912114098e-02  -4.2478514484455041e-02  -3.7245739557960199e-02  -3.7181612735595969e-02  -3.6883105712349332e-02  -3.7234005494145614e-02  -3.7408576873083951e-02  -3.7190932589590026e-02  -3.7837000282133437e-02  -3.8207212399573608e-02  -4.1729029571485908e-02  -4.1428302066130851e-02  -4.2618357105329970e-02  -4.2357073642712059e-02  -3.6653527871684667e-02  -3.6926114563828445e-02  -4.2763245876152621e-02  -4.2735234396700759e-02  -3.7240067956258213e-02  -3.6882924955616798e-02  -4.8000118036092207e-02  -4.7632563558579706e-02  -3.7504123235181770e-02  -3.7574819184829279e-02  -3.6091082467550252e-02  -3.6295059581868322e-02  -2.5633390104201650e-02  -2.5834379221762273e-02  -4.9240993983703650e-02  -4.8763276798920056e-02  -3.7173968207608946e-02  -3.7212161676434027e-02  -2.6274769220897418e-02  -2.6381405806756759e-02  -2.5426266973877974e-02  -2.5517094526091411e-02  -2.4421506295430467e-02  -4.4736323441683816e-02  -4.4589078777238299e-02  -4.2844148117529866e-02  -4.2634165170262361e-02  -4.3649024906684070e-02  -4.3835226865362967e-02  -4.1797174862551127e-02  -4.2067298427558054e-02  -5.1469900952371202e-02  -5.1180401603511123e-02  -5.1785020435714688e-02  -5.1624968119446724e-02  -3.6464618100864932e-02  -3.6185606991065378e-02  -4.1531811835438213e-02  -4.2148717049547105e-02  -3.6443076564651039e-02  -3.6840431303225812e-02  -2.5120926780374475e-02  -2.5041269804101339e-02  -2.5226779649044621e-02  -1.3904245476827590e-02  -1.3957646870883545e-02  -1.3930688351576754e-02  -1.3864644573257291e-02  -2.3245175734457769e-02  -2.3418924874855335e-02  -4.7012241658851345e-02  -4.6789914936474046e-02  -4.7130735565263558e-02  -4.7219131447404028e-02  -4.5971396412526171e-02  -4.5873953460660012e-02  -5.2603471942396840e-02  -5.2953927821098874e-02  -4.5140422449221736e-02  -4.4862083849946818e-02  -5.2906581918725853e-02  -5.2942693088013706e-02  -3.5786386383096946e-02  -3.5864378217293741e-02  -2.8484141998947683e-02  -2.8541432789763035e-02  -3.6017084546704381e-02  -3.5694573149921020e-02  -3.4629051407278684e-02  -3.9611694256713799e-02  -3.8898917272418586e-02  -2.2809938222325816e-02  -2.2878647017119617e-02  -4.7717473250226773e-02  -4.7970045795826699e-02  -4.3382874595936635e-02  -4.3589196393462946e-02  -4.6207787627010451e-02  -4.5681762237649449e-02  -4.3168126916853913e-02  -4.3611330471090969e-02  -3.5423826541982034e-02  -3.5139555912654906e-02  -4.1227367142226273e-02  -4.1213280267309735e-02  -4.1755384735607096e-02  -4.2447688851043087e-02  -2.7621714059898619e-02  -2.4093610959362129e-02  -2.4331556276225273e-02  -4.8463740552781923e-02  -4.8657119863235870e-02  -2.3941509734550701e-02  -2.3644339705479037e-02  -2.2759756211711692e-02  -2.2529796783239811e-02  -3.6156204621524045e-02  -4.6868352337870740e-02  -4.6500437594512438e-02  -2.2605108028784432e-02  -2.2404270662285234e-02  -3.5816921062611203e-02  -4.3363512999152358e-02  -3.5781944265535721e-02  -4.3366149622610713e-02  -2.2478765496294621e-02  -2.2650889403013529e-02  -4.1035508636376519e-02  -4.0916932936156059e-02  -4.1135570393048521e-02  -4.1180962190713793e-02  -3.4787206851479874e-02  -3.4712816033263767e-02  -4.7905386696006760e-02  -4.7676313610069479e-02  -3.5289241609994498e-02  -4.2781971402923114e-02  -3.5006020869944456e-02  -4.2254714035049858e-02  -3.8508884442127786e-02  -3.9029492947333072e-02  -1.9070263093270357e-02  -2.0452988961063536e-02  -2.3790574262885590e-02  -2.3832166763029645e-02  -2.1780806810057746e-02  -2.1919008381015546e-02  -4.2485477243469148e-02  -4.2469153567882265e-02  -4.2040055678477295e-02  -4.2549845426137933e-02  -4.2097108332965205e-02  -4.2088770303667478e-02  -2.2373569268731505e-02  -2.2108103049365099e-02  -4.5555703177185353e-02  -4.5590338789599949e-02  -5.0799190566505906e-02  -5.0726831590448523e-02  -4.6709106227905237e-02  -4.6908271378241523e-02  -3.4901289893845555e-02  -3.4573144748281222e-02  -4.8857652479896527e-02  -4.8384552842896403e-02  -5.1443361918965508e-02  -5.1512344384733788e-02  -3.5443821152811257e-02  -3.5280635196259298e-02  -3.4301740790464122e-02  -3.4043201192000501e-02  -3.9575695532847094e-02  -3.9409627165206552e-02  -1.6061036435236851e-02  -1.6012628729040607e-02  -3.4235391495573635e-02  -3.4222681599629587e-02  -4.6162579948827769e-02  -4.4830866374284524e-02  -4.6533772458323887e-02  -4.5098392962886112e-02  -5.0913296995052849e-02  -5.0773847318107190e-02  -5.2947559172565821e-02  -5.2883613176156967e-02  -3.3180780294822937e-02  -3.2972871679978512e-02  -3.7569096610846980e-02  -3.7089261794983411e-02  -4.9503993953211901e-02  -4.9345915287862384e-02  -5.3137358600693144e-02  -5.3385527640418137e-02  -4.4400073882430426e-02  -4.4954620104061385e-02  -4.2533481283881965e-02  -4.1984414295304029e-02  -3.3338052658501122e-02  -1.9465083540711255e-02  -1.9492714894300947e-02  -3.4955053414763224e-02  -2.0110006970849831e-02  -2.0258609652537101e-02  -2.0381921084964782e-02  -1.7054772606341469e-02  -1.5114205866360695e-02  -1.5199510105565407e-02  -3.3718026744307190e-02  -3.3964046797536271e-02  -1.5480201508201664e-02  -1.5567069611430515e-02  -1.9775849231990703e-02  -1.9076645158815207e-02  -1.9261067568681605e-02  -3.3371405990675340e-02  -3.3132016981638000e-02  -1.6310807523769229e-02  -1.6362410870392252e-02  -4.1137386860628858e-02  -4.0771989140140283e-02  -4.3337145261583714e-02  -4.3040670182973452e-02  -5.1143467133722566e-02  -5.1550208314967511e-02  -4.0965461735098560e-02  -4.1116575172431495e-02  -4.2305574515941378e-02  -4.9089509588424327e-02  -4.9160252302992771e-02  -4.6042572363113099e-02  -4.6005085973454325e-02  -4.2049749660334070e-02  -3.2686716954962544e-02  -3.2502970993729237e-02  -4.8091415951087006e-02  -4.7593456109078260e-02  -3.4488366801400376e-02  -3.4254593828411638e-02  -1.6233017741343937e-02  -1.6288641309597052e-02  -3.3702625969245996e-02  -3.3519948551238257e-02  -1.6939440985419590e-02  -1.6747202647296951e-02  -3.3409053060984482e-02  -3.3226222550999995e-02  -4.2377141640099099e-02  -1.8680216412928715e-02  -3.8439459512308406e-02  -3.8153143964631688e-02  -3.5809472745273060e-02  -3.5900368794409603e-02  -3.8495083003334533e-02  -3.8531863803293952e-02  -3.8840914310126762e-02  -4.2344659333918351e-02  -3.9200473256419607e-02  -4.2779163990022372e-02  -5.0073013076753582e-02  -4.9992029914210256e-02  -4.6006921236295642e-02  -4.6279862768744365e-02  -4.2822416804022059e-02  -4.2714140193302150e-02  -3.9331738168318468e-02  -3.9058946684166602e-02  -4.6583831424225362e-02  -4.6063602667989770e-02  -4.8996207593584508e-02  -4.8869032106859049e-02  -4.2363951612043420e-02  -4.2851042905321442e-02  -3.4276205713229889e-02  -3.4531933892505362e-02  -3.6349266242493121e-02  -3.6079683822422284e-02  -3.6563203041638313e-02  -3.6707046141170319e-02  -4.6003974326862616e-02  -4.5743247085152920e-02  -3.2978716832617452e-02  -3.2863825450848004e-02  -3.3521920644863153e-02  -3.3293457168367221e-02  -4.2571237309645779e-02  -4.2905449221540756e-02  -4.2308044133672298e-02  -4.2295979506761901e-02  -1.8303640572726949e-02  -1.8182572464054303e-02  -3.6719578655883087e-02  -3.7075646759316856e-02  -3.7971321041216678e-02  -3.7711038747834193e-02  -4.0858614928025977e-02  -4.06663719886