<?xml version="1.0"?>
<VTKFile type="UnstructuredGrid"  version="0.1"  >
<UnstructuredGrid>
<Piece  NumberOfPoints="1286" NumberOfCells="2474">
<Points>
<DataArray  type="Float64"  NumberOfComponents="3"  format="ascii">0 0 0  0 1 0  1 1 0  1 0 0  1.1 -0.1 0  -0.1 -0.1 0  1.1 1.1 0  -0.1 1.1 0  0.2501431151178717 0.4972043481708665 0  0.5020392413962205 0.4993291469321708 0  0 0.9499999999997918 0  0 0.8999999999995836 0  0 0.8499999999996529 0  0 0.7999999999999998 0  0 0.7500000000003466 0  0 0.7000000000006934 0  0 0.6500000000010401 0  0 0.6000000000013869 0  0 0.5500000000017335 0  0 0.5000000000020587 0  0 0.4500000000018723 0  0 0.4000000000016644 0  0 0.3500000000014564 0  0 0.3000000000012483 0  0 0.2500000000010403 0  0 0.2000000000008322 0  0 0.1500000000006241 0  0 0.100000000000416 0  0 0.05000000000020799 0  0.04999999999989965 0 0  0.09999999999981467 0 0  0.1499999999997036 0 0  0.1999999999995579 0 0  0.2499999999994121 0 0  0.2999999999992664 0 0  0.3499999999991206 0 0  0.3999999999989749 0 0  0.4499999999988292 0 0  0.4999999999986943 0 0  0.5499999999988151 0 0  0.5999999999989468 0 0  0.6499999999990784 0 0  0.69999999999921 0 0  0.7499999999993417 0 0  0.7999999999994734 0 0  0.8499999999996051 0 0  0.8999999999997368 0 0  0.9499999999998684 0 0  1 0.04999999999989965 0  1 0.09999999999981467 0  1 0.1499999999997036 0  1 0.1999999999995579 0  1 0.2499999999994121 0  1 0.2999999999992664 0  1 0.3499999999991206 0  1 0.3999999999989749 0  1 0.4499999999988292 0  1 0.4999999999986943 0  1 0.5499999999988151 0  1 0.5999999999989468 0  1 0.6499999999990784 0  1 0.69999999999921 0  1 0.7499999999993417 0  1 0.7999999999994734 0  1 0.8499999999996051 0  1 0.8999999999997368 0  1 0.9499999999998684 0  0.9499999999997918 1 0  0.8999999999995836 1 0  0.8499999999996529 1 0  0.7999999999999998 1 0  0.7500000000003466 1 0  0.7000000000006934 1 0  0.6500000000010401 1 0  0.6000000000013869 1 0  0.5500000000017335 1 0  0.5000000000020587 1 0  0.4500000000018723 1 0  0.4000000000016644 1 0  0.3500000000014564 1 0  0.3000000000012483 1 0  0.2500000000010403 1 0  0.2000000000008322 1 0  0.1500000000006241 1 0  0.100000000000416 1 0  0.05000000000020799 1 0  -0.1 1.05000000000004 0  -0.1 1.000000000000079 0  -0.1 0.9500000000001624 0  -0.1 0.9000000000003032 0  -0.1 0.850000000000444 0  -0.1 0.8000000000005848 0  -0.1 0.7500000000007256 0  -0.1 0.7000000000008665 0  -0.1 0.6500000000010508 0  -0.1 0.6000000000012352 0  -0.1 0.5500000000014196 0  -0.1 0.500000000001539 0  -0.1 0.4500000000014195 0  -0.1 0.4000000000013 0  -0.1 0.3500000000011588 0  -0.1 0.3000000000010178 0  -0.1 0.2500000000008986 0  -0.1 0.2000000000007579 0  -0.1 0.1500000000006174 0  -0.1 0.1000000000005272 0  -0.1 0.05000000000040083 0  -0.1 2.671196597248127e-13 0  -0.1 -0.0499999999998666 0  -0.0500000000000906 -0.1 0  -1.730560139634463e-13 -0.1 0  0.04999999999975802 -0.1 0  0.09999999999961506 -0.1 0  0.1499999999994613 -0.1 0  0.199999999999302 -0.1 0  0.2499999999991446 -0.1 0  0.2999999999990088 -0.1 0  0.3499999999988296 -0.1 0  0.3999999999986936 -0.1 0  0.4499999999985143 -0.1 0  0.4999999999984002 -0.1 0  0.5499999999985247 -0.1 0  0.5999999999986493 -0.1 0  0.6499999999987955 -0.1 0  0.6999999999989417 -0.1 0  0.7499999999990659 -0.1 0  0.7999999999992116 -0.1 0  0.8499999999993573 -0.1 0  0.8999999999994526 -0.1 0  0.949999999999584 -0.1 0  0.9999999999997226 -0.1 0  1.049999999999861 -0.1 0  1.1 -0.0500000000000906 0  1.1 -1.730560139634463e-13 0  1.1 0.04999999999975802 0  1.1 0.09999999999961506 0  1.1 0.1499999999994613 0  1.1 0.199999999999302 0  1.1 0.2499999999991446 0  1.1 0.2999999999990088 0  1.1 0.3499999999988296 0  1.1 0.3999999999986936 0  1.1 0.4499999999985143 0  1.1 0.4999999999984002 0  1.1 0.5499999999985247 0  1.1 0.5999999999986493 0  1.1 0.6499999999987955 0  1.1 0.6999999999989417 0  1.1 0.7499999999990659 0  1.1 0.7999999999992116 0  1.1 0.8499999999993573 0  1.1 0.8999999999994526 0  1.1 0.949999999999584 0  1.1 0.9999999999997226 0  1.1 1.049999999999861 0  1.05000000000004 1.1 0  1.000000000000079 1.1 0  0.9500000000001624 1.1 0  0.9000000000003032 1.1 0  0.850000000000444 1.1 0  0.8000000000005848 1.1 0  0.7500000000007256 1.1 0  0.7000000000008665 1.1 0  0.6500000000010508 1.1 0  0.6000000000012352 1.1 0  0.5500000000014196 1.1 0  0.500000000001539 1.1 0  0.4500000000014195 1.1 0  0.4000000000013 1.1 0  0.3500000000011588 1.1 0  0.3000000000010178 1.1 0  0.2500000000008986 1.1 0  0.2000000000007579 1.1 0  0.1500000000006174 1.1 0  0.1000000000005272 1.1 0  0.05000000000040083 1.1 0  2.671196597248127e-13 1.1 0  -0.0499999999998666 1.1 0  0.2547378487901396 0.4678505462731308 0  0.263501730276721 0.4400510407828892 0  0.2752169024489052 0.4139158529123323 0  0.2890488730406391 0.3894203562667957 0  0.3043490175578892 0.3665259848387913 0  0.3206776484492397 0.3452266461653876 0  0.3375053011172133 0.3256854587813441 0  0.3568920554648363 0.3067066436972707 0  0.3782845046446031 0.2891828146027741 0  0.4013452921582857 0.2736110165578257 0  0.4260951825644167 0.2603892500362764 0  0.4523226625484655 0.2500759305408192 0  0.4801422011738847 0.2435343374627684 0  0.5093143799090801 0.2422533681036028 0  0.5377167572373038 0.2466445373092279 0  0.5649260865691854 0.2554629037395812 0  0.5906436848515269 0.2675955916102847 0  0.6148236118988548 0.282059235927498 0  0.6376359482995275 0.2986546259222254 0  0.6590115695147576 0.3170390045524553 0  0.6787542113956214 0.336816084455481 0  0.6971971314856146 0.3582760193139928 0  0.7138088930100409 0.3808978016354806 0  0.7284943863675526 0.4048472930794599 0  0.7407762818053439 0.4301983536713469 0  0.7501265066945304 0.4569687772828188 0  0.7555162315922586 0.4850957630274525 0  0.755555458002088 0.5140184747569024 0  0.7503405097488134 0.5418787197854554 0  0.7409056167546711 0.5690869123877372 0  0.7286098063419527 0.594594203002762 0  0.7138571006743203 0.6187059377979771 0  0.697028973117409 0.6415285255332033 0  0.6785455509587048 0.6629011527807568 0  0.6586268713947927 0.6827538016481359 0  0.6370483475097677 0.7011381315844023 0  0.6141790875582576 0.7175799477516496 0  0.5896271011709642 0.7321572576089885 0  0.5638552070937464 0.7441387969509891 0  0.5362347037962846 0.7530074009804284 0  0.5074654417182345 0.7573787057975893 0  0.4782681742995251 0.755983327673391 0  0.4501699160467681 0.7493364349216445 0  0.4236919751826713 0.7389762160801886 0  0.3985986396188069 0.7258229632256157 0  0.3749241907971806 0.7103673824951936 0  0.3525514518152258 0.6928447794517871 0  0.3317451931994435 0.6736491757500127 0  0.3126698855177708 0.653005641545598 0  0.2950929778197227 0.6304222403657905 0  0.2797012985430313 0.6065921097499642 0  0.2667377946594067 0.5812412971182924 0  0.2567595414445435 0.5545011278907742 0  0.250760828543131 0.5263689866946808 0  0.5032646660532401 0.6301516184464483 0  0.5112667874497289 0.3620206883272482 0  0.6474434333768085 0.4979127816571902 0  0.3519583441659354 0.4984322655821167 0  0.4020352393267564 0.4093434470493936 0  0.3962276990069432 0.5884456846626555 0  0.5917259815342587 0.392947587242744 0  0.5905253409312471 0.6064664877530276 0  0.4347323542506605 0.6553825800977858 0  0.4864709894829899 0.6932937322808919 0  0.546516011819753 0.689763967132146 0  0.4328806447629127 0.3404950041728578 0  0.4890637995135838 0.3039909559353931 0  0.5499597089609509 0.3095401181303358 0  0.6584850028203185 0.5904125981806403 0  0.6591154795464559 0.4094878328701277 0  0.339268517703872 0.5779912446384151 0  0.3434666133360709 0.418976008528456 0  0.3811406514171464 0.6423394392260476 0  0.3853446053899423 0.3541768266727964 0  0.5953204094799674 0.6582890248506025 0  0.5964488140419758 0.3413137586701689 0  0.6996038476531787 0.4997816296337195 0  0.6974961752559592 0.5539922377198221 0  0.6976813106743035 0.4462231660426644 0  0.3066828292619726 0.4521985557513102 0  0.2941807498390063 0.5037575494307005 0  0.6385301671666126 0.3656216204180319 0  0.6382568610376725 0.6350305202089572 0  0.3012890771319781 0.5539393530755319 0  0.4262362947223552 0.512734167716798 0  0.442774641309771 0.6997785907739343 0  0.4453518681765594 0.2993774510424412 0  0.3509000414859549 0.3771439586451036 0  0.3457624084653916 0.6207045772253896 0  0.5650258586370233 0.5240983925862702 0  0.5234399793789323 0.4396724118468903 0  0.5217176463258286 0.2798104091605455 0  0.5193496079744124 0.7193717691015656 0  0.4697175504582592 0.5755253401352318 0  0.4718887316049517 0.4447847175216734 0  0.3985539058581271 0.6739294471604197 0  0.4021536412413983 0.325733289910836 0  0.6182283773983336 0.4493722913704508 0  0.6165106921322708 0.5477798746707088 0  0.5818968061253588 0.3100303107140945 0  0.580870538924486 0.6893311659055928 0  0.3847879439259909 0.5360277754477281 0  0.3796585095800418 0.4570221858575527 0  0.4447789285618687 0.4074441355834482 0  0.7177205655365313 0.5290737665959937 0  0.7186606805382246 0.4687500451484025 0  0.5519201605648471 0.6248964279896406 0  0.5551965619871302 0.3736137108498999 0  0.6969647906245237 0.5867859384902732 0  0.696661164783491 0.4122762630313239 0  0.4217201808035424 0.6220652471449775 0  0.308500942989372 0.4173224380123054 0  0.4742480624969119 0.7282414426919593 0  0.4760403597324315 0.2711624944564258 0  0.4606880767126133 0.679417816878098 0  0.4600473519084013 0.3203383694689899 0  0.6675399725462502 0.3769090531329119 0  0.6675646064353968 0.6222727572531933 0  0.6281530877004459 0.3341014801840888 0  0.6279125617548574 0.665181428081883 0  0.28266245401754 0.469582172523401 0  0.3069253125087371 0.5840720748849706 0  0.7301260197775096 0.4993628141002483 0  0.5186681256831511 0.5639790575296296 0  0.2810762876565807 0.5331063435267773 0  0.3259598392741918 0.3910047973134681 0  0.4572347373038619 0.6201955295688403 0  0.5664185239908307 0.2842552513910273 0  0.5645919081013815 0.7152404232890124 0  0.3432790618127242 0.5397559599428374 0  0.3171496445504882 0.5246774177375811 0  0.5672986634
[...]
<PointData  Scalars="state"> 
<DataArray  type="Float64"  Name="state"  format="ascii">0.0000000000000000e+00  0.0000000000000000e+00  0.0000000000000000e+00  0.0000000000000000e+00  0.0000000000000000e+00  0.0000000000000000e+00  0.0000000000000000e+00  0.0000000000000000e+00  -2.9444107555021293e-02  -5.2353401437029157e-03  0.0000000000000000e+00  0.0000000000000000e+00  0.0000000000000000e+00  0.0000000000000000e+00  0.0000000000000000e+00  0.0000000000000000e+00  0.0000000000000000e+00  0.0000000000000000e+00  0.0000000000000000e+00  0.0000000000000000e+00  0.0000000000000000e+00  0.0000000000000000e+00  0.0000000000000000e+00  0.0000000000000000e+00  0.0000000000000000e+00  0.0000000000000000e+00  0.0000000000000000e+00  0.0000000000000000e+00  0.0000000000000000e+00  0.0000000000000000e+00  0.0000000000000000e+00  0.0000000000000000e+00  0.0000000000000000e+00  0.0000000000000000e+00  0.0000000000000000e+00  0.0000000000000000e+00  0.0000000000000000e+00  0.0000000000000000e+00  0.0000000000000000e+00  0.0000000000000000e+00  0.0000000000000000e+00  0.0000000000000000e+00  0.0000000000000000e+00  0.0000000000000000e+00  0.0000000000000000e+00  0.0000000000000000e+00  0.0000000000000000e+00  0.0000000000000000e+00  0.0000000000000000e+00  0.0000000000000000e+00  0.0000000000000000e+00  0.0000000000000000e+00  0.0000000000000000e+00  0.0000000000000000e+00  0.0000000000000000e+00  0.0000000000000000e+00  0.0000000000000000e+00  0.0000000000000000e+00  0.0000000000000000e+00  0.0000000000000000e+00  0.0000000000000000e+00  0.0000000000000000e+00  0.0000000000000000e+00  0.0000000000000000e+00  0.0000000000000000e+00  0.0000000000000000e+00  0.0000000000000000e+00  0.0000000000000000e+00  0.0000000000000000e+00  0.0000000000000000e+00  0.0000000000000000e+00  0.0000000000000000e+00  0.0000000000000000e+00  0.0000000000000000e+00  0.0000000000000000e+00  0.0000000000000000e+00  0.0000000000000000e+00  0.0000000000000000e+00  0.0000000000000000e+00  0.0000000000000000e+00  0.0000000000000000e+00  0.0000000000000000e+00  0.0000000000000000e+00  0.0000000000000000e+00  0.0000000000000000e+00  0.0000000000000000e+00  0.0000000000000000e+00  0.0000000000000000e+00  0.0000000000000000e+00  0.0000000000000000e+00  0.0000000000000000e+00  0.0000000000000000e+00  0.0000000000000000e+00  0.0000000000000000e+00  0.0000000000000000e+00  0.0000000000000000e+00  0.0000000000000000e+00  0.0000000000000000e+00  0.0000000000000000e+00  0.0000000000000000e+00  0.0000000000000000e+00  0.0000000000000000e+00  0.0000000000000000e+00  0.0000000000000000e+00  0.0000000000000000e+00  0.0000000000000000e+00  0.0000000000000000e+00  0.0000000000000000e+00  0.0000000000000000e+00  0.0000000000000000e+00  0.0000000000000000e+00  0.0000000000000000e+00  0.0000000000000000e+00  0.0000000000000000e+00  0.0000000000000000e+00  0.0000000000000000e+00  0.0000000000000000e+00  0.0000000000000000e+00  0.0000000000000000e+00  0.0000000000000000e+00  0.0000000000000000e+00  0.0000000000000000e+00  0.0000000000000000e+00  0.0000000000000000e+00  0.0000000000000000e+00  0.0000000000000000e+00  0.0000000000000000e+00  0.0000000000000000e+00  0.0000000000000000e+00  0.0000000000000000e+00  0.0000000000000000e+00  0.0000000000000000e+00  0.0000000000000000e+00  0.0000000000000000e+00  0.0000000000000000e+00  0.0000000000000000e+00  0.0000000000000000e+00  0.0000000000000000e+00  0.0000000000000000e+00  0.0000000000000000e+00  0.0000000000000000e+00  0.0000000000000000e+00  0.0000000000000000e+00  0.0000000000000000e+00  0.0000000000000000e+00  0.0000000000000000e+00  0.0000000000000000e+00  0.0000000000000000e+00  0.0000000000000000e+00  0.0000000000000000e+00  0.0000000000000000e+00  0.0000000000000000e+00  0.0000000000000000e+00  0.0000000000000000e+00  0.0000000000000000e+00  0.0000000000000000e+00  0.0000000000000000e+00  0.0000000000000000e+00  0.0000000000000000e+00  0.0000000000000000e+00  0.0000000000000000e+00  0.0000000000000000e+00  0.0000000000000000e+00  0.0000000000000000e+00  0.0000000000000000e+00  0.0000000000000000e+00  0.0000000000000000e+00  0.0000000000000000e+00  0.0000000000000000e+00  0.0000000000000000e+00  0.0000000000000000e+00  0.0000000000000000e+00  0.0000000000000000e+00  0.0000000000000000e+00  0.0000000000000000e+00  0.0000000000000000e+00  0.0000000000000000e+00  0.0000000000000000e+00  -2.9159126369569167e-02  -2.8990379523132825e-02  -2.8749280776840767e-02  -2.8601376620139261e-02  -2.8551091453336976e-02  -2.8708733285667351e-02  -2.8774888426990820e-02  -2.8901095392089505e-02  -2.8980641709596262e-02  -2.8931595337506732e-02  -2.8797286558697354e-02  -2.8890475931182227e-02  -2.8988614283070840e-02  -2.8818663639502261e-02  -2.8686846945889459e-02  -2.8579640920271460e-02  -2.8378404288275202e-02  -2.8436804838207680e-02  -2.8278873258380476e-02  -2.8208918406890920e-02  -2.8143692821626362e-02  -2.7980043807793016e-02  -2.8173416362591734e-02  -2.8104369721953969e-02  -2.7962031550735695e-02  -2.8181739961629627e-02  -2.8241235151533484e-02  -2.8233932828941044e-02  -2.8181216639211484e-02  -2.7950895899599815e-02  -2.8091219439436044e-02  -2.8154338025609193e-02  -2.7950322207091212e-02  -2.8094537866383707e-02  -2.8139915701468662e-02  -2.8193115028544477e-02  -2.8323764272972125e-02  -2.8241700585019812e-02  -2.8403815983172861e-02  -2.8488679890020317e-02  -2.8603345648824125e-02  -2.8734922917189480e-02  -2.8598263180501803e-02  -2.8483545874215723e-02  -2.8619897331616132e-02  -2.8710097226278257e-02  -2.8714055518526866e-02  -2.8732048975152094e-02  -2.8891506049169166e-02  -2.8961911429698992e-02  -2.8914291012843298e-02  -2.9104032420489114e-02  -2.9321407896068678e-02  -2.9385670303181222e-02  -1.1833314210356778e-02  -1.2735700807411442e-02  -1.3288308545187151e-02  -1.4278863603481700e-02  -1.3005788311848917e-02  -1.2985174471253948e-02  -1.3021053273366466e-02  -1.2902624649064470e-02  -1.6028143230150241e-02  -1.8573713209805665e-02  -1.8776016358647226e-02  -1.6968341821269835e-02  -1.9126504966511946e-02  -1.9049990044751521e-02  -1.7177370637051471e-02  -1.7238656163724338e-02  -1.7646186289156797e-02  -1.7665291872195191e-02  -1.8251837546646086e-02  -1.8712679253989596e-02  -1.7568668729016090e-02  -1.7687754233662308e-02  -1.8753825243212258e-02  -1.9651030630198674e-02  -1.9670519192270589e-02  -2.0333335443173662e-02  -2.1071576552138000e-02  -1.8799562583836076e-02  -1.8866791284063707e-02  -2.1146747900219979e-02  -7.9830376142011258e-03  -2.0497582728829861e-02  -2.0825320477351413e-02  -2.0033759428852351e-02  -1.9869688598942333e-02  -7.0935907971204212e-03  -7.1209175978759198e-03  -2.2160154897034406e-02  -2.1865967612207524e-02  -8.0695308041568489e-03  -7.1825810873810915e-03  -2.0302568385136697e-02  -2.0465425841177318e-02  -1.1637371341209655e-02  -1.1340850581468179e-02  -2.0525795075169748e-02  -2.0355204387849268e-02  -1.1463495799267649e-02  -1.2391611293941762e-02  -1.0332978625068535e-02  -2.1588777726156489e-02  -2.1815406413470809e-02  -1.2363735045152830e-02  -1.2622196076419030e-02  -2.1442260403095346e-02  -2.1444968403301075e-02  -1.3713381974343457e-02  -2.1983615212772291e-02  -2.3106037938219789e-02  -2.3402698441445841e-02  -1.7522737097707082e-02  -1.7953404459039288e-02  -2.0854832922392697e-02  -2.0802790084272955e-02  -2.0984293859551334e-02  -2.0888847210335754e-02  -2.3095818698834921e-02  -2.1954055553219387e-02  -2.2936747185856119e-02  -6.8376300720455110e-03  -2.3289179220515314e-02  -2.1813693461263783e-02  -1.1805417866229887e-02  -2.3004285436736865e-02  -2.2785694442891299e-02  -1.5808839885491768e-02  -1.8315358662611060e-02  -1.6484701505730212e-02  -1.6306608344997343e-02  -1.6033473673320756e-02  -1.5550669633251952e-02  -1.5951100388733971e-02  -1.5170738046929083e-02  -1.5246137332798618e-02  -1.5811229625547516e-02  -1.6005158193820191e-02  -1.4886617699254574e-02  -1.6450559171232837e-02  -2.1775661039956169e-02  -2.3024822778623517e-02  -2.2749923302455712e-02  -1.5160937840122162e-02  -1.6072276473094012e-02  -2.1924002600349404e-02  -2.1706818854861153e-02  -7.3645203888380818e-03  -1.5533957970035355e-02  -1.5650880841211155e-02  -1.4306158450488240e-02  -2.3024486244198648e-02  -2.3034433763404204e-02  -1.7889136607514348e-02  -2.2203739648424117e-02  -2.2640595879379003e-02  -2.2646631524007633e-02  -2.2537240809603652e-02  -1.6882748319186437e-02  -1.8339813023942227e-02  -1.8622567584676963e-02  -2.5121300499597037e-02  -2.3972575672323141e-02  -2.4184428546527550e-02  -2.3957654364508134e-02  -2.3537880610977519e-02  -2.3857815640668044e-02  -2.2667174898447578e-02  -2.2602417982522723e-02  -1.7352973834793398e-02  -1.7685163885638830e-02  -1.7682899019895698e-02  -1.0629490913456064e-02  -1.7395516336642856e-02  -1.7160958830299021e-02  -1.8486282737454854e-02  -8.6226841335747002e-03  -1.6214411179556892e-02  -1.6085109355625331e-02  -1.3658551233843255e-02  -1.6201239547922523e-02  -1.6467405544463600e-02  -2.3868734862270161e-02  -2.4056766417100400e-02  -2.4843711443370876e-02  -2.3008484205761948e-02  -2.3030605419007193e-02  -1.8494604215393343e-02  -9.0002050655552338e-03  -1.8794013950209403e-02  -1.8206583581333018e-02  -2.0424354786689337e-02  -2.0746026413854229e-02  -2.3658270365718961e-02  -1.5605084798555517e-02  -2.4457481188581223e-02  -2.4134084117835370e-02  -1.9155234519717713e-02  -1.9486298145652475e-02  -9.3796448896616962e-03  -1.0595640927283228e-02  -2.4613010673601922e-02  -2.4546920416936770e-02  -1.5964726249919580e-02  -9.3391993053389185e-03  -8.8958473699798542e-03  -2.0948791480614175e-02  -2.1323222412520694e-02  -1.6541781751377879e-02  -2.5349851199333390e-02  -2.0346416924271280e-02  -1.4942665720346653e-02  -1.4790493033057914e-02  -2.3598040678374878e-02  -6.4653115170507282e-03  -2.3745720673243053e-02  -2.3757708592300652e-02  -1.7938217399767246e-02  -1.7906437737457682e-02  -2.1172021970906098e-02  -2.0930368187604562e-02  -9.3301372947061766e-03  -1.8268424403034750e-02  -1.8132098781804031e-02  -1.4434778651856493e-02  -2.4610407152307688e-02  -2.4824587754205197e-02  -2.4211466695301106e-02  -2.3930182421540474e-02  -2.4405837518432897e-02  -2.4279643782611854e-02  -1.4243795933873668e-02  -1.2994793508094637e-02  -1.8151405096833672e-02  -1.8086545817992492e-02  -2.4586223692592227e-02  -9.5665456757999152e-03  -1.4069232858607618e-02  -1.2702446630216052e-02  -1.8523891301676317e-02  -1.4707408676517797e-02  -1.4779719905212175e-02  -6.4306518780885740e-03  -1.7220375944350941e-02  -1.7402700772342256e-02  -2.3293848323319651e-02  -2.3250144040791391e-02  -2.4312239913375919e-02  -5.0710543637052165e-02  -5.0923113026267973e-02  -5.1531813386623174e-02  -5.2111159144415602e-02  -4.5703313697011430e-02  -4.4849654693991908e-02  -4.5673857422114328e-02  -4.5649276317455120e-02  -4.5865894525477222e-02  -4.6029720987693007e-02  -4.7483702852280686e-02  -4.7273001780749287e-02  -3.9345614084636195e-02  -3.9380087018084833e-02  -3.8659987471379914e-02  -4.0471172035842183e-02  -4.9528186064361060e-02  -4.9115206490496333e-02  -4.9923191336355088e-02  -5.0601415646249537e-02  -4.6599190141166869e-02  -4.6146125414506453e-02  -4.7231257554743479e-02  -4.7030217904442069e-02  -4.3382066659208567e-02  -4.2804139159042541e-02  -4.0748065544066271e-02  -4.1588860975265457e-02  -4.1010897081707347e-02  -4.2060015115628742e-02  -4.2490226249819955e-02  -4.2261622024325145e-02  -3.8867060637661363e-02  -3.1598616267677820e-02  -3.9160784437717255e-02  -3.1880748854499132e-02  -4.2696468610825711e-02  -4.2644279628718064e-02  -3.0542677714706847e-02  -3.0343743728188200e-02  -4.2724048496061331e-02  -4.3390276421532946e-02  -3.7508452424051597e-02  -3.7183087417943274e-02  -4.1440947552557519e-02  -3.7891458552546650e-02  -3.8167824766219174e-02  -3.9790894190765924e-02  -3.9647651398830065e-02  -3.8305219330999028e-02  -3.8909075860123966e-02  -3.7061234475552859e-02  -3.6963638436470415e-02  -3.9292221257616652e-02  -3.1318255040735501e-02  -3.3081204000212527e-02  -3.1146888797578143e-02  -3.1041172465131269e-02  -3.0840707336890302e-02  -3.0356332931517405e-02  -5.1196165004178992e-02  -5.0427332579855072e-02  -5.1108444341637208e-02  -5.1200933617761686e-02  -4.1069871879113318e-02  -4.0583527612266433e-02  -4.0518454313764919e-02  -4.0041946475339665e-02  -5.0157955302955845e-02  -5.0258383628981426e-02  -5.2946157528293167e-02  -5.2522314083357724e-02  -4.2994419390036433e-02  -4.3378828792190370e-02  -3.0439694725945814e-02  -3.0922436039932014e-02  -3.0265909834784076e-02  -2.9675621226684528e-02  -4.0261621449551623e-02  -4.0336014523201416e-02  -2.8916060606407220e-02  -2.9140431313361199e-02  -3.9126472396914184e-02  -3.9564196881271219e-02  -3.6652324856852873e-02  -4.1591536727915185e-02  -3.6446072400766083e-02  -4.1543936622730496e-02  -3.7368130781166117e-02  -3.7163656952448262e-02  -3.6576083444617664e-02  -3.6992016741132207e-02  -3.7831379259756513e-02  -3.7512202284995258e-02  -3.8462674137991808e-02  -3.8950761926639703e-02  -4.2243755122743316e-02  -4.1735593600852515e-02  -4.2493590153337944e-02  -4.2221156110960535e-02  -3.7374538339693605e-02  -3.7690511204027936e-02  -4.2455776103858804e-02  -4.2553597348159299e-02  -3.6669635763118630e-02  -3.6296413761691126e-02  -4.7689632200352029e-02  -4.7309035777588743e-02  -3.7514835151678430e-02  -3.7428290511564773e-02  -3.5857707202087613e-02  -3.6154510820413835e-02  -2.5530819497500530e-02  -2.5741215516535489e-02  -5.0216602473087839e-02  -4.9381159868858049e-02  -3.7432525349038882e-02  -3.7264159846795951e-02  -2.5932815361020333e-02  -2.6005587180694709e-02  -2.5509053577431790e-02  -2.5691181615682439e-02  -2.3887799530697241e-02  -4.4276492432354132e-02  -4.4095945096710720e-02  -4.3257308577355512e-02  -4.2860669794933637e-02  -4.2897805046331519e-02  -4.3085770944532767e-02  -4.1640041695818086e-02  -4.1923417502083837e-02  -5.1159448320754766e-02  -5.0878281860471296e-02  -5.2559657069365127e-02  -5.2080054257607380e-02  -3.5886601447692887e-02  -3.5615030541205253e-02  -4.2079891335543775e-02  -4.2887105644894695e-02  -3.6069830145532104e-02  -3.6523536747040272e-02  -2.5480735932310671e-02  -2.4977927463156566e-02  -2.5169570847681174e-02  -1.3951894607227188e-02  -1.4041761195970951e-02  -1.3908826289227945e-02  -1.3839848820819445e-02  -2.3394428884312965e-02  -2.3664903260350541e-02  -4.6445970500251954e-02  -4.6229024351728293e-02  -4.7449725232318808e-02  -4.7315743719560030e-02  -4.6277186529823169e-02  -4.5983085288430529e-02  -5.3124469202283892e-02  -5.3813466294129336e-02  -4.4794712375219189e-02  -4.4503639844767830e-02  -5.2672256316274264e-02  -5.2698367593059424e-02  -3.5954879187452347e-02  -3.5843182193774525e-02  -2.8189595787846140e-02  -2.8190879076512569e-02  -3.5505465840619553e-02  -3.5135059968041261e-02  -3.4120981873074434e-02  -3.8778823166767701e-02  -3.8073133474573223e-02  -2.2833287100780177e-02  -2.2988207480755779e-02  -4.7480884820057447e-02  -4.7748532870416853e-02  -4.3142666596352172e-02  -4.3351847698307563e-02  -4.7158592990021633e-02  -4.6309501869222856e-02  -4.3641464674631050e-02  -4.4373776715932498e-02  -3.5911980947018578e-02  -3.5607793579054192e-02  -4.0646793744733532e-02  -4.0685248298851243e-02  -4.2394832363920353e-02  -4.3208193991420375e-02  -2.7021364686964654e-02  -2.3954499914968830e-02  -2.4196644091431584e-02  -4.8713281118033844e-02  -4.9135492501068745e-02  -2.3765714369268161e-02  -2.3458886941494624e-02  -2.3073763217908314e-02  -2.2723339188997056e-02  -3.6913441214601835e-02  -4.7540290428373898e-02  -4.6905359008551091e-02  -2.2537245414131102e-02  -2.2330866757646881e-02  -3.6017711088301201e-02  -4.3897873726477278e-02  -3.5824362014606800e-02  -4.3651607719637837e-02  -2.2216531289607121e-02  -2.2381634950889108e-02  -4.0601039528215838e-02  -4.0398664963186552e-02  -4.0935662936941314e-02  -4.0850622553243128e-02  -3.4833696285581230e-02  -3.4633016547312476e-02  -4.7733905013637480e-02  -4.7493900385547988e-02  -3.4671750281936031e-02  -4.2330806798882722e-02  -3.4356194568112515e-02  -4.1787680639644602e-02  -3.7967061824050435e-02  -3.8492719544282170e-02  -1.8807344414481314e-02  -2.0142283657692481e-02  -2.3701441918597889e-02  -2.3822613119633650e-02  -2.1719250664935720e-02  -2.1864184426494213e-02  -4.2008360608373978e-02  -4.2095029150022008e-02  -4.1670574033770343e-02  -4.2214724724357264e-02  -4.2076059422240152e-02  -4.1924931219233359e-02  -2.2744992149740201e-02  -2.2339154373671403e-02  -4.5587204564572895e-02  -4.5455459950226269e-02  -5.0406472062537427e-02  -5.0345770056318219e-02  -4.6318654409870645e-02  -4.6537350744556998e-02  -3.4698641015953727e-02  -3.4304637756460865e-02  -4.8538288105704971e-02  -4.8062552827541800e-02  -5.1720503716145401e-02  -5.2058824507048809e-02  -3.5658035173965326e-02  -3.5426198745640167e-02  -3.3723274095093805e-02  -3.3453139423163608e-02  -3.9194244138710629e-02  -3.9039031503056022e-02  -1.6152650352569083e-02  -1.6057492117159865e-02  -3.4406026873066882e-02  -3.4188543642265284e-02  -4.6743105592515925e-02  -4.5326814482772253e-02  -4.7434679542045700e-02  -4.5877865757046943e-02  -5.0644566551797346e-02  -5.0505860838629818e-02  -5.2702297217524494e-02  -5.2624270184619647e-02  -3.2690191655920138e-02  -3.2421168674386353e-02  -3.8250458659968012e-02  -3.7536658716394541e-02  -5.0300980089508271e-02  -4.9823931885298912e-02  -5.3546850545445314e-02  -5.4096499909717412e-02  -4.4988585447167960e-02  -4.5821163322865066e-02  -4.2154726282598726e-02  -4.1576791901776267e-02  -3.3785251900296395e-02  -1.9315613370741259e-02  -1.9297741414298717e-02  -3.5505010406904104e-02  -2.0345306527128973e-02  -2.0612858952062184e-02  -1.9980239410265929e-02  -1.6726202160339390e-02  -1.5088723816106037e-02  -1.5176952052506980e-02  -3.4448479129519538e-02  -3.4665930239545673e-02  -1.5552495521542930e-02  -1.5686917466862019e-02  -2.0027059116412473e-02  -1.8970203306555321e-02  -1.9162360443775894e-02  -3.3399792222633354e-02  -3.3073166173586604e-02  -1.6342520439241632e-02  -1.6452251812864783e-02  -4.0491463641859501e-02  -4.0132068854536074e-02  -4.2895764896021905e-02  -4.2556511840508890e-02  -5.1727146366324320e-02  -5.2491689699290398e-02  -4.1126884322451769e-02  -4.1086318500902823e-02  -4.2938475754176593e-02  -4.8786946275159823e-02  -4.8862309330396266e-02  -4.5374486362519749e-02  -4.5340229869760947e-02  -4.1054046994092187e-02  -3.2190544981064384e-02  -3.2001400202435207e-02  -4.8991541052997849e-02  -4.8157594182481493e-02  -3.3867763769939094e-02  -3.3592936489172200e-02  -1.6047236464145773e-02  -1.6076466805408217e-02  -3.3248872890412236e-02  -3.3077856134257788e-02  -1.6764580577506787e-02  -1.6562327876307053e-02  -3.3640641129245717e-02  -3.3515572255700225e-02  -4.3067329087001144e-02  -1.8974332815107863e-02  -3.8139785616086337e-02  -3.7782456558674890e-02  -3.5353134992939017e-02  -3.5397203630817713e-02  -3.8162655854896851e-02  -3.8111975462474044e-02  -3.9502275649065777e-02  -4.2974752826670432e-02  -3.9990032002584705e-02  -4.3650823552659070e-02  -5.0484889625180891e-02  -5.0169103236451136e-02  -4.6317367738094348e-02  -4.6816036997842980e-02  -4.2987488528142312e-02  -4.3112111387100381e-02  -3.8625437329116205e-02  -3.8362300511257101e-02  -4.6275142899981851e-02  -4.5738438485714655e-02  -4.8593322435653556e-02  -4.8454223316666253e-02  -4.1849840125132425e-02  -4.2340682953229604e-02  -3.4167495738467418e-02  -3.4431643220757036e-02  -3.6202452333725009e-02  -3.5920286948634937e-02  -3.6708911588774887e-02  -3.6999682987162053e-02  -4.5854876115755644e-02  -4.5580824306113377e-02  -3.2606527329545346e-02  -3.2500156364243471e-02  -3.4034883719208223e-02  -3.3868900744500843e-02  -4.2118986372278906e-02  -4.2462529101541295e-02  -4.1773159921577610e-02  -4.1797170174435024e-02  -1.8049553319097862e-02  -1.7941129127529355e-02  -3.6414399365475580e-02  -3.6782355629773819e-02  -3.7215862466778764e-02  -3.6971374279177918e-02  -4.0558938922322998e-02  -4.03699738873