<?xml version="1.0"?>
<VTKFile type="UnstructuredGrid"  version="0.1"  >
<UnstructuredGrid>
<Piece  NumberOfPoints="1286" NumberOfCells="2474">
<Points>
<DataArray  type="Float64"  NumberOfComponents="3"  format="ascii">0 0 0  0 1 0  1 1 0  1 0 0  1.1 -0.1 0  -0.1 -0.1 0  1.1 1.1 0  -0.1 1.1 0  0.2504899288096917 0.4974728871741415 0  0.5031895650392704 0.4994888881141972 0  0 0.9499999999997918 0  0 0.8999999999995836 0  0 0.8499999999996529 0  0 0.7999999999999998 0  0 0.7500000000003466 0  0 0.7000000000006934 0  0 0.6500000000010401 0  0 0.6000000000013869 0  0 0.5500000000017335 0  0 0.5000000000020587 0  0 0.4500000000018723 0  0 0.4000000000016644 0  0 0.3500000000014564 0  0 0.3000000000012483 0  0 0.2500000000010403 0  0 0.2000000000008322 0  0 0.1500000000006241 0  0 0.100000000000416 0  0 0.05000000000020799 0  0.04999999999989965 0 0  0.09999999999981467 0 0  0.1499999999997036 0 0  0.1999999999995579 0 0  0.2499999999994121 0 0  0.2999999999992664 0 0  0.3499999999991206 0 0  0.3999999999989749 0 0  0.4499999999988292 0 0  0.4999999999986943 0 0  0.5499999999988151 0 0  0.5999999999989468 0 0  0.6499999999990784 0 0  0.69999999999921 0 0  0.7499999999993417 0 0  0.7999999999994734 0 0  0.8499999999996051 0 0  0.8999999999997368 0 0  0.9499999999998684 0 0  1 0.04999999999989965 0  1 0.09999999999981467 0  1 0.1499999999997036 0  1 0.1999999999995579 0  1 0.2499999999994121 0  1 0.2999999999992664 0  1 0.3499999999991206 0  1 0.3999999999989749 0  1 0.4499999999988292 0  1 0.4999999999986943 0  1 0.5499999999988151 0  1 0.5999999999989468 0  1 0.6499999999990784 0  1 0.69999999999921 0  1 0.7499999999993417 0  1 0.7999999999994734 0  1 0.8499999999996051 0  1 0.8999999999997368 0  1 0.9499999999998684 0  0.9499999999997918 1 0  0.8999999999995836 1 0  0.8499999999996529 1 0  0.7999999999999998 1 0  0.7500000000003466 1 0  0.7000000000006934 1 0  0.6500000000010401 1 0  0.6000000000013869 1 0  0.5500000000017335 1 0  0.5000000000020587 1 0  0.4500000000018723 1 0  0.4000000000016644 1 0  0.3500000000014564 1 0  0.3000000000012483 1 0  0.2500000000010403 1 0  0.2000000000008322 1 0  0.1500000000006241 1 0  0.100000000000416 1 0  0.05000000000020799 1 0  -0.1 1.05000000000004 0  -0.1 1.000000000000079 0  -0.1 0.9500000000001624 0  -0.1 0.9000000000003032 0  -0.1 0.850000000000444 0  -0.1 0.8000000000005848 0  -0.1 0.7500000000007256 0  -0.1 0.7000000000008665 0  -0.1 0.6500000000010508 0  -0.1 0.6000000000012352 0  -0.1 0.5500000000014196 0  -0.1 0.500000000001539 0  -0.1 0.4500000000014195 0  -0.1 0.4000000000013 0  -0.1 0.3500000000011588 0  -0.1 0.3000000000010178 0  -0.1 0.2500000000008986 0  -0.1 0.2000000000007579 0  -0.1 0.1500000000006174 0  -0.1 0.1000000000005272 0  -0.1 0.05000000000040083 0  -0.1 2.671196597248127e-13 0  -0.1 -0.0499999999998666 0  -0.0500000000000906 -0.1 0  -1.730560139634463e-13 -0.1 0  0.04999999999975802 -0.1 0  0.09999999999961506 -0.1 0  0.1499999999994613 -0.1 0  0.199999999999302 -0.1 0  0.2499999999991446 -0.1 0  0.2999999999990088 -0.1 0  0.3499999999988296 -0.1 0  0.3999999999986936 -0.1 0  0.4499999999985143 -0.1 0  0.4999999999984002 -0.1 0  0.5499999999985247 -0.1 0  0.5999999999986493 -0.1 0  0.6499999999987955 -0.1 0  0.6999999999989417 -0.1 0  0.7499999999990659 -0.1 0  0.7999999999992116 -0.1 0  0.8499999999993573 -0.1 0  0.8999999999994526 -0.1 0  0.949999999999584 -0.1 0  0.9999999999997226 -0.1 0  1.049999999999861 -0.1 0  1.1 -0.0500000000000906 0  1.1 -1.730560139634463e-13 0  1.1 0.04999999999975802 0  1.1 0.09999999999961506 0  1.1 0.1499999999994613 0  1.1 0.199999999999302 0  1.1 0.2499999999991446 0  1.1 0.2999999999990088 0  1.1 0.3499999999988296 0  1.1 0.3999999999986936 0  1.1 0.4499999999985143 0  1.1 0.4999999999984002 0  1.1 0.5499999999985247 0  1.1 0.5999999999986493 0  1.1 0.6499999999987955 0  1.1 0.6999999999989417 0  1.1 0.7499999999990659 0  1.1 0.7999999999992116 0  1.1 0.8499999999993573 0  1.1 0.8999999999994526 0  1.1 0.949999999999584 0  1.1 0.9999999999997226 0  1.1 1.049999999999861 0  1.05000000000004 1.1 0  1.000000000000079 1.1 0  0.9500000000001624 1.1 0  0.9000000000003032 1.1 0  0.850000000000444 1.1 0  0.8000000000005848 1.1 0  0.7500000000007256 1.1 0  0.7000000000008665 1.1 0  0.6500000000010508 1.1 0  0.6000000000012352 1.1 0  0.5500000000014196 1.1 0  0.500000000001539 1.1 0  0.4500000000014195 1.1 0  0.4000000000013 1.1 0  0.3500000000011588 1.1 0  0.3000000000010178 1.1 0  0.2500000000008986 1.1 0  0.2000000000007579 1.1 0  0.1500000000006174 1.1 0  0.1000000000005272 1.1 0  0.05000000000040083 1.1 0  2.671196597248127e-13 1.1 0  -0.0499999999998666 1.1 0  0.2555715529079044 0.4682676874153004 0  0.2649307660678893 0.4407246339501686 0  0.2771506468949105 0.4148774696848973 0  0.2913249732715135 0.3906324186453424 0  0.3067940794827951 0.3678976034451569 0  0.3231064708555926 0.3466237373124109 0  0.3396698601188729 0.3268766133227783 0  0.3588179906912167 0.3076893577822774 0  0.3799373683270219 0.2898638032570649 0  0.4026976739211655 0.2738598209645499 0  0.4271572692101303 0.2600885605579048 0  0.4531534533335362 0.2491010203563065 0  0.4808724733410268 0.2418953862793863 0  0.5101097545424588 0.2403828535890087 0  0.5385477781843825 0.2451696983835442 0  0.5656620037803473 0.2545636914441258 0  0.5912162885053105 0.2672221323880783 0  0.6152624474871613 0.2820460592055653 0  0.6379658685589411 0.2989026298445371 0  0.6592994618873327 0.3174316488740994 0  0.6790963551417285 0.3372511592226644 0  0.6976969997552588 0.3586664120702573 0  0.7146036832165126 0.381171605952864 0  0.7297225994245617 0.4049680382832062 0  0.7425445068127369 0.4301800466218381 0  0.7525110704086738 0.4568787095819247 0  0.7584614354474316 0.4850701244889434 0  0.7584957797543079 0.5141571184877249 0  0.7527405118574093 0.5420833439739776 0  0.7426585073187317 0.5692180892478279 0  0.7298294998790208 0.5945950497234384 0  0.7146489394635186 0.6185638267305439 0  0.697512491845643 0.6412681145185855 0  0.6788603531752614 0.6625954346486633 0  0.658892941148671 0.6825068644263814 0  0.6373457366281398 0.701037642281778 0  0.6145643679416235 0.7177272686367407 0  0.5901525860271887 0.7326990238564426 0  0.5645226865001886 0.7451838134285865 0  0.5369916631632569 0.7546542865315046 0  0.5081754015770457 0.7594575641008768 0  0.4788975439790514 0.7578215747210392 0  0.4508797308285711 0.7505170532607547 0  0.424612170606799 0.739486441262512 0  0.3997755700449532 0.7258072523394915 0  0.3763458908822692 0.7099688753250868 0  0.3541809245198431 0.6921989049913873 0  0.3334976757505532 0.6729031019975029 0  0.314443920520255 0.652281713263328 0  0.2967842387926455 0.629813728382391 0  0.2811655976488794 0.6061793923292934 0  0.2678484685404061 0.5810676733629215 0  0.2573971558390691 0.5545534216160179 0  0.2509787729834176 0.526572363891227 0  0.5042418249092327 0.6305077575464659 0  0.5123154197141681 0.3618966383553747 0  0.6487941066382931 0.4980031741904305 0  0.3531997578773243 0.4987083624745711 0  0.4034857827756425 0.409747229284715 0  0.3974644467318477 0.5884841334541873 0  0.5926749588116382 0.3929882395911696 0  0.5914319737590782 0.6066383801435573 0  0.4358555626208703 0.6556053635684724 0  0.4873525250324623 0.6940489023548563 0  0.5472672909530787 0.6904211787282576 0  0.4342120770571027 0.3406274968257688 0  0.4900591624030358 0.3034592510574634 0  0.5507806665959156 0.3091008313439348 0  0.6595050134749865 0.5904307286693024 0  0.6601597461794041 0.4096339310122462 0  0.3405315571478412 0.5779111766541378 0  0.3451086516978779 0.41964139665338 0  0.3824908691364601 0.6421804859857017 0  0.3869974544761015 0.3547622513009622 0  0.596009968885835 0.6585114794232784 0  0.5971871967924111 0.3412825860530967 0  0.7014055013479251 0.4998550689363444 0  0.6990094819305913 0.5540568621646553 0  0.6992154954751818 0.4463013356988689 0  0.3080820810238722 0.4527667002593052 0  0.295122497959951 0.5040302851862322 0  0.6392635365595708 0.3657889635472072 0  0.6389512697288171 0.6350290172710295 0  0.3023420608083061 0.5539480145845042 0  0.4274551373517207 0.5129325205315088 0  0.4437727418661844 0.7002759617318096 0  0.4465085561084942 0.2991426775390241 0  0.3527702609025724 0.3779868577193147 0  0.3471951557612771 0.6204163180532459 0  0.5661345203868171 0.5242391014052956 0  0.5245629175599236 0.4397641486269845 0  0.5225710978895142 0.2788868579758807 0  0.5201132073882929 0.7205025276562215 0  0.4708352548647856 0.5757256275415797 0  0.4730952428622778 0.4449484101837496 0  0.3998299370958501 0.6738757613196148 0  0.4036692071373548 0.3261286654648102 0  0.619376662867399 0.4494701269459919 0  0.6176439531596449 0.5478837197937345 0  0.5825919086481485 0.3097978493387814 0  0.5815082610088324 0.6897476042591653 0  0.3860139902178 0.5361711115281345 0  0.3810347155039465 0.4574055678548661 0  0.4460767905050061 0.4076610516099024 0  0.7196893400120311 0.5291710887046902 0  0.7206363207410666 0.4687816818818459 0  0.552819894154282 0.625193762249151 0  0.5561525844455059 0.3735557781965567 0  0.6981386788616195 0.5867785405328 0  0.6978405497059689 0.4124238401616992 0  0.422910984455017 0.6221666732624722 0  0.3102873263273542 0.4181568680558925 0  0.4750363174132868 0.7294055630552898 0  0.4769472014241999 0.2702252817174976 0  0.4616776434802893 0.6799166275561821 0  0.4612007233715556 0.3201464726464777 0  0.6683086555727362 0.3771428286313886 0  0.6683154690633596 0.6221909537121163 0  0.6287276766886245 0.3342442738820237 0  0.6284513899456117 0.6652017910124766 0  0.2837511504052824 0.4700408227860403 0  0.3081860712553248 0.5838919566091603 0  0.7324304270001888 0.499424217959907 0  0.519738777870282 0.5641815431569516 0  0.2818702011987855 0.5332351253107338 0  0.3279297857226587 0.3919594063468426 0  0.4583276712955451 0.6204407124943132 0  0.5671363339963033 0.2837049880184482 0  0.5652471583873382 0.7159765503383146 0  0.3444617324267307 0.5398612352303309 0  0.3182310223043587 0.524844183744777 0  0.5681296900839
[...]
<PointData  Scalars="state"> 
<DataArray  type="Float64"  Name="state"  format="ascii">0.0000000000000000e+00  0.0000000000000000e+00  0.0000000000000000e+00  0.0000000000000000e+00  0.0000000000000000e+00  0.0000000000000000e+00  0.0000000000000000e+00  0.0000000000000000e+00  -2.9843229617844642e-02  -5.2240333421763327e-03  0.0000000000000000e+00  0.0000000000000000e+00  0.0000000000000000e+00  0.0000000000000000e+00  0.0000000000000000e+00  0.0000000000000000e+00  0.0000000000000000e+00  0.0000000000000000e+00  0.0000000000000000e+00  0.0000000000000000e+00  0.0000000000000000e+00  0.0000000000000000e+00  0.0000000000000000e+00  0.0000000000000000e+00  0.0000000000000000e+00  0.0000000000000000e+00  0.0000000000000000e+00  0.0000000000000000e+00  0.0000000000000000e+00  0.0000000000000000e+00  0.0000000000000000e+00  0.0000000000000000e+00  0.0000000000000000e+00  0.0000000000000000e+00  0.0000000000000000e+00  0.0000000000000000e+00  0.0000000000000000e+00  0.0000000000000000e+00  0.0000000000000000e+00  0.0000000000000000e+00  0.0000000000000000e+00  0.0000000000000000e+00  0.0000000000000000e+00  0.0000000000000000e+00  0.0000000000000000e+00  0.0000000000000000e+00  0.0000000000000000e+00  0.0000000000000000e+00  0.0000000000000000e+00  0.0000000000000000e+00  0.0000000000000000e+00  0.0000000000000000e+00  0.0000000000000000e+00  0.0000000000000000e+00  0.0000000000000000e+00  0.0000000000000000e+00  0.0000000000000000e+00  0.0000000000000000e+00  0.0000000000000000e+00  0.0000000000000000e+00  0.0000000000000000e+00  0.0000000000000000e+00  0.0000000000000000e+00  0.0000000000000000e+00  0.0000000000000000e+00  0.0000000000000000e+00  0.0000000000000000e+00  0.0000000000000000e+00  0.0000000000000000e+00  0.0000000000000000e+00  0.0000000000000000e+00  0.0000000000000000e+00  0.0000000000000000e+00  0.0000000000000000e+00  0.0000000000000000e+00  0.0000000000000000e+00  0.0000000000000000e+00  0.0000000000000000e+00  0.0000000000000000e+00  0.0000000000000000e+00  0.0000000000000000e+00  0.0000000000000000e+00  0.0000000000000000e+00  0.0000000000000000e+00  0.0000000000000000e+00  0.0000000000000000e+00  0.0000000000000000e+00  0.0000000000000000e+00  0.0000000000000000e+00  0.0000000000000000e+00  0.0000000000000000e+00  0.0000000000000000e+00  0.0000000000000000e+00  0.0000000000000000e+00  0.0000000000000000e+00  0.0000000000000000e+00  0.0000000000000000e+00  0.0000000000000000e+00  0.0000000000000000e+00  0.0000000000000000e+00  0.0000000000000000e+00  0.0000000000000000e+00  0.0000000000000000e+00  0.0000000000000000e+00  0.0000000000000000e+00  0.0000000000000000e+00  0.0000000000000000e+00  0.0000000000000000e+00  0.0000000000000000e+00  0.0000000000000000e+00  0.0000000000000000e+00  0.0000000000000000e+00  0.0000000000000000e+00  0.0000000000000000e+00  0.0000000000000000e+00  0.0000000000000000e+00  0.0000000000000000e+00  0.0000000000000000e+00  0.0000000000000000e+00  0.0000000000000000e+00  0.0000000000000000e+00  0.0000000000000000e+00  0.0000000000000000e+00  0.0000000000000000e+00  0.0000000000000000e+00  0.0000000000000000e+00  0.0000000000000000e+00  0.0000000000000000e+00  0.0000000000000000e+00  0.0000000000000000e+00  0.0000000000000000e+00  0.0000000000000000e+00  0.0000000000000000e+00  0.0000000000000000e+00  0.0000000000000000e+00  0.0000000000000000e+00  0.0000000000000000e+00  0.0000000000000000e+00  0.0000000000000000e+00  0.0000000000000000e+00  0.0000000000000000e+00  0.0000000000000000e+00  0.0000000000000000e+00  0.0000000000000000e+00  0.0000000000000000e+00  0.0000000000000000e+00  0.0000000000000000e+00  0.0000000000000000e+00  0.0000000000000000e+00  0.0000000000000000e+00  0.0000000000000000e+00  0.0000000000000000e+00  0.0000000000000000e+00  0.0000000000000000e+00  0.0000000000000000e+00  0.0000000000000000e+00  0.0000000000000000e+00  0.0000000000000000e+00  0.0000000000000000e+00  0.0000000000000000e+00  0.0000000000000000e+00  0.0000000000000000e+00  0.0000000000000000e+00  0.0000000000000000e+00  0.0000000000000000e+00  0.0000000000000000e+00  0.0000000000000000e+00  0.0000000000000000e+00  0.0000000000000000e+00  0.0000000000000000e+00  0.0000000000000000e+00  0.0000000000000000e+00  0.0000000000000000e+00  0.0000000000000000e+00  0.0000000000000000e+00  0.0000000000000000e+00  0.0000000000000000e+00  0.0000000000000000e+00  -2.9491218852168599e-02  -2.9226971654923099e-02  -2.8885667469055857e-02  -2.8656098540477199e-02  -2.8545279116303546e-02  -2.8674397952648957e-02  -2.8775214069087392e-02  -2.8914265579172590e-02  -2.9015384529663131e-02  -2.8996126534771995e-02  -2.8898087975300527e-02  -2.9040634522546380e-02  -2.9186257891907288e-02  -2.9013929379456582e-02  -2.8797180547053977e-02  -2.8588665057656285e-02  -2.8295273831693044e-02  -2.8282329252862969e-02  -2.8063417223722954e-02  -2.7950198412492293e-02  -2.7860386907109246e-02  -2.7691698169820006e-02  -2.7900152814280935e-02  -2.7863560449940095e-02  -2.7766692450046166e-02  -2.8042086241896223e-02  -2.8166525587879871e-02  -2.8156206768269926e-02  -2.8038540990410116e-02  -2.7742624237401519e-02  -2.7835131537749070e-02  -2.7863651257200320e-02  -2.7637614543683516e-02  -2.7779493990647639e-02  -2.7847929559098497e-02  -2.7937506318382491e-02  -2.8118064406016531e-02  -2.8108505099411776e-02  -2.8350048323488666e-02  -2.8534470345716757e-02  -2.8734669285780407e-02  -2.8860790585905058e-02  -2.8673202356519267e-02  -2.8504796169983544e-02  -2.8604839057527278e-02  -2.8672969984057516e-02  -2.8666050995621101e-02  -2.8698990036977495e-02  -2.8894764875288702e-02  -2.9018603804510670e-02  -2.9045491691342452e-02  -2.9322187953646148e-02  -2.9642209897138724e-02  -2.9793271710270464e-02  -1.1798538680806497e-02  -1.2731972258693176e-02  -1.3120171333357990e-02  -1.4439261741798045e-02  -1.3096245067765673e-02  -1.3061187796698010e-02  -1.2910958522424174e-02  -1.2767648703984389e-02  -1.6047735320353057e-02  -1.8575473538708205e-02  -1.8711816795316666e-02  -1.7032139361302812e-02  -1.9182647675228693e-02  -1.9030856562474920e-02  -1.6979430666487549e-02  -1.7058359192628408e-02  -1.7777991333991747e-02  -1.7787424048010776e-02  -1.8292768567456874e-02  -1.8778932615964181e-02  -1.7422906380744872e-02  -1.7577660237652292e-02  -1.8582504881918958e-02  -1.9457819886178833e-02  -1.9487554011104417e-02  -2.0523804437952584e-02  -2.1318768386204050e-02  -1.8625839987096337e-02  -1.8664768984206253e-02  -2.1354286575825689e-02  -8.0569028320461224e-03  -2.0516425853244195e-02  -2.0902364946222243e-02  -2.0106995269590748e-02  -1.9944362929279522e-02  -6.9972838891220798e-03  -7.0881882040528914e-03  -2.2216508058932657e-02  -2.1865740829002264e-02  -8.0813471760797229e-03  -7.2122954711419289e-03  -2.0320724526828145e-02  -2.0530018813874767e-02  -1.1493746125478578e-02  -1.1187372784890444e-02  -2.0450948050868556e-02  -2.0235826580727433e-02  -1.1577483267210338e-02  -1.2515013447673969e-02  -1.0390103251449215e-02  -2.1419702604923815e-02  -2.1651134649291241e-02  -1.2272126922661051e-02  -1.2561773642654369e-02  -2.1220116581719146e-02  -2.1237690302025918e-02  -1.3751497259119559e-02  -2.2118381438868004e-02  -2.3150809945965599e-02  -2.3510733148542635e-02  -1.7531325154490126e-02  -1.8013656116602945e-02  -2.0645867574563291e-02  -2.0570748676210483e-02  -2.0818876827364611e-02  -2.0688635775341392e-02  -2.3350095076691217e-02  -2.2113623242488296e-02  -2.2789619898256976e-02  -6.7934163350199866e-03  -2.3557050670746604e-02  -2.1899331215632055e-02  -1.1818907334563897e-02  -2.2976879832733367e-02  -2.2707718507591693e-02  -1.5968973770182453e-02  -1.8518227577178293e-02  -1.6420552665301746e-02  -1.6203646068796949e-02  -1.6190024508867730e-02  -1.5515060933863444e-02  -1.5959524919210172e-02  -1.4995163154046406e-02  -1.5092303694112102e-02  -1.5904045594184849e-02  -1.6104099710601488e-02  -1.4707254176519299e-02  -1.6271873429114639e-02  -2.1883704112224012e-02  -2.3094102863533587e-02  -2.2759286211513494e-02  -1.4990553146627590e-02  -1.5898599934966576e-02  -2.1976885900429878e-02  -2.1748992460090554e-02  -7.2719345293357496e-03  -1.5378144351754774e-02  -1.5524301473761480e-02  -1.4373706194119616e-02  -2.2817008300722717e-02  -2.2838508250695715e-02  -1.8086256101937211e-02  -2.2216390779770799e-02  -2.2690413280382977e-02  -2.2517838723781308e-02  -2.2365854476279836e-02  -1.6914657218896664e-02  -1.8314384341893059e-02  -1.8647286456982826e-02  -2.5441700846363585e-02  -2.4165230181811746e-02  -2.4297226337437777e-02  -2.4008621646410450e-02  -2.3572133361383737e-02  -2.3957937390974009e-02  -2.2456080344220423e-02  -2.2360879937466487e-02  -1.7420185593852888e-02  -1.7501800566627375e-02  -1.7486959885940997e-02  -1.0670461509049017e-02  -1.7477763482357241e-02  -1.7229830896994199e-02  -1.8639062730978519e-02  -8.7025147825803111e-03  -1.6189015544282502e-02  -1.6015971142804047e-02  -1.3702789139726460e-02  -1.6189296663662443e-02  -1.6502113763434190e-02  -2.3848381638231810e-02  -2.4095033847009159e-02  -2.5085102095950548e-02  -2.2758175608823442e-02  -2.2799865234174391e-02  -1.8665367183568187e-02  -9.0108047865127792e-03  -1.8614325497102430e-02  -1.8032247654366038e-02  -2.0445086101855255e-02  -2.0824645013736980e-02  -2.3696488537878424e-02  -1.5657445367806600e-02  -2.4542096158846061e-02  -2.4151016256697522e-02  -1.9171396262209858e-02  -1.9554534713079250e-02  -9.2687160062468101e-03  -1.0711083363497766e-02  -2.4477914139969078e-02  -2.4407344624385985e-02  -1.6040287545835474e-02  -9.2497701467870157e-03  -8.9564211817072439e-03  -2.0964085467195998e-02  -2.1396375076728359e-02  -1.6368231210113493e-02  -2.5660368012592489e-02  -2.0572280655760493e-02  -1.4847053441103765e-02  -1.4663182757059882e-02  -2.3657150607605815e-02  -6.5055518992310074e-03  -2.3562265714354637e-02  -2.3582380939783945e-02  -1.7758808885315894e-02  -1.7704312555848919e-02  -2.1187116886807158e-02  -2.0892758521367731e-02  -9.1974537543662235e-03  -1.8366314659011406e-02  -1.8234594662844838e-02  -1.4434284339772752e-02  -2.4643047548938184e-02  -2.4918364769228218e-02  -2.4260881497846422e-02  -2.3925196691925277e-02  -2.4313577263229118e-02  -2.4139162517076825e-02  -1.4086646330752283e-02  -1.2858696953126886e-02  -1.8007155981638202e-02  -1.7910147437049408e-02  -2.4782202876153941e-02  -9.5312908353898072e-03  -1.3896661397832692e-02  -1.2549328607985605e-02  -1.8708641356246666e-02  -1.4826332745642998e-02  -1.4897206967923005e-02  -6.4552363652658120e-03  -1.7043226682363247e-02  -1.7216912610850423e-02  -2.3062615902268879e-02  -2.2991679038015730e-02  -2.4391442960995657e-02  -5.0569941083492748e-02  -5.0757090144963470e-02  -5.1724391588859824e-02  -5.2398931314738113e-02  -4.6085406212339683e-02  -4.5141543038548983e-02  -4.5489536816457864e-02  -4.5514530874237673e-02  -4.5567608383369575e-02  -4.5712822418831463e-02  -4.7624626569357162e-02  -4.7320861707232077e-02  -3.9175043434907367e-02  -3.9279446937463228e-02  -3.8222164834338573e-02  -4.0786782902325937e-02  -4.9358519789822392e-02  -4.8903948899180191e-02  -5.0211687434843159e-02  -5.1005213225214709e-02  -4.6340702092884531e-02  -4.5859863144090872e-02  -4.7496431802348152e-02  -4.7188418574281611e-02  -4.3786735039955282e-02  -4.3149406712030873e-02  -4.0551229873506713e-02  -4.1395227334078653e-02  -4.0886832811193971e-02  -4.1926725496693254e-02  -4.2102505767471272e-02  -4.1860096907524701e-02  -3.8940488295416013e-02  -3.1674944593100988e-02  -3.9297145870506825e-02  -3.1996838170746236e-02  -4.2775147405209941e-02  -4.2629183119436385e-02  -3.0478556140864116e-02  -3.0288774474627276e-02  -4.3028770422872252e-02  -4.3775620005831926e-02  -3.7352029750354648e-02  -3.7038073189218160e-02  -4.1809383097635572e-02  -3.7812094753399875e-02  -3.8064068974485117e-02  -3.9751011460237892e-02  -3.9524516281990871e-02  -3.8487727874895565e-02  -3.9160972180978929e-02  -3.6878225169528600e-02  -3.6832595059660772e-02  -3.8845709924654394e-02  -3.1030262808536813e-02  -3.2780588694318324e-02  -3.1156712746316807e-02  -3.0993621713876898e-02  -3.1052997171158513e-02  -3.0602955348577390e-02  -5.1565877687347259e-02  -5.0692729860960316e-02  -5.0898085663427510e-02  -5.0966518559498186e-02  -4.0907353973565735e-02  -4.0371476482135606e-02  -4.0307044180015697e-02  -3.9790641806158641e-02  -5.0028540059319594e-02  -5.0091607455190694e-02  -5.3210296295590660e-02  -5.2682643713613003e-02  -4.3199991158553649e-02  -4.3673893953928011e-02  -3.0243800518438547e-02  -3.0717183400704041e-02  -3.0502392382977531e-02  -2.9854825773674355e-02  -4.0326075489809585e-02  -4.0496294960313040e-02  -2.8828949769522078e-02  -2.9023413041765464e-02  -3.8804407674499379e-02  -3.9260659595562124e-02  -3.6293541921195376e-02  -4.1137775399678368e-02  -3.6085549499116736e-02  -4.1079001763008188e-02  -3.7457861681923006e-02  -3.7186785716938509e-02  -3.6436268744296327e-02  -3.6916974514542782e-02  -3.8068528844024736e-02  -3.7706383336289034e-02  -3.8783821754407172e-02  -3.9311668079493274e-02  -4.2460932835626145e-02  -4.1886228983774983e-02  -4.2386441460991381e-02  -4.2133949520261289e-02  -3.7735897349869069e-02  -3.8064924444012965e-02  -4.2381841984557224e-02  -4.2561765669992237e-02  -3.6400284601884436e-02  -3.6002133163910599e-02  -4.7541811843787536e-02  -4.7110361758203066e-02  -3.7570589204601074e-02  -3.7395775703078650e-02  -3.5765611996620497e-02  -3.6135148580600428e-02  -2.5461739454825841e-02  -2.5666076600435232e-02  -5.0641306822928257e-02  -4.9695525828739248e-02  -3.7591602603328979e-02  -3.7336925805377154e-02  -2.5849357874248174e-02  -2.5880025859250696e-02  -2.5553376844548017e-02  -2.5769619922105542e-02  -2.3628060074782156e-02  -4.4126077457182514e-02  -4.3883139042150500e-02  -4.3437064534559075e-02  -4.2974617371437804e-02  -4.2513894400034669e-02  -4.2688011509565499e-02  -4.1532966463064980e-02  -4.1801620323985718e-02  -5.0956131290391102e-02  -5.0642333241307298e-02  -5.2900989873883253e-02  -5.2306194115343700e-02  -3.5574187708234069e-02  -3.5293272808166791e-02  -4.2385421636827653e-02  -4.3249397928300952e-02  -3.5889748824737264e-02  -3.6398131961531549e-02  -2.5672430801022189e-02  -2.4939389184536365e-02  -2.5120281890367070e-02  -1.3975426034552565e-02  -1.4077466120802143e-02  -1.3888760562654487e-02  -1.3822689018657698e-02  -2.3467277471995947e-02  -2.3767802000429238e-02  -4.6126873232053070e-02  -4.5888755413831618e-02  -4.7634953031551359e-02  -4.7398120677613627e-02  -4.6437887248607146e-02  -4.6059901852135453e-02  -5.3380078452477560e-02  -5.4180914585803132e-02  -4.4561116082940021e-02  -4.4286792357950570e-02  -5.2479800364322961e-02  -5.2540822220326300e-02  -3.6059580470008130e-02  -3.5858596538708619e-02  -2.8132232627594136e-02  -2.8083944522396671e-02  -3.5303609190382439e-02  -3.4890363043812329e-02  -3.3818575309252225e-02  -3.8371822891380081e-02  -3.7664319600890117e-02  -2.2857185035857919e-02  -2.3049289633682316e-02  -4.7323358404576361e-02  -4.7572015975163980e-02  -4.3035063704415559e-02  -4.3208010929026971e-02  -4.7589226237656365e-02  -4.6642624502861545e-02  -4.3882384439394809e-02  -4.4701790393142385e-02  -3.6174596725098450e-02  -3.5854262918702903e-02  -4.0439881449251099e-02  -4.0545355013997308e-02  -4.2745798737559050e-02  -4.3595084692571826e-02  -2.6730760018797907e-02  -2.3898501831109569e-02  -2.4121347301361382e-02  -4.8843518564100671e-02  -4.9351186883297836e-02  -2.3649306240963348e-02  -2.3348229439174296e-02  -2.3205447030906639e-02  -2.2819011856668400e-02  -3.7286654719352295e-02  -4.7824527297045998e-02  -4.7104558304594098e-02  -2.2486830385394386e-02  -2.2292861407976958e-02  -3.6168022614956802e-02  -4.4161091057115770e-02  -3.5906358229730456e-02  -4.3817037347171454e-02  -2.2137675831638705e-02  -2.2275050936140336e-02  -4.0502421858346585e-02  -4.0222386490722566e-02  -4.0933708154636636e-02  -4.0761653338763242e-02  -3.4880882186956702e-02  -3.4602028849324153e-02  -4.7595372573594509e-02  -4.7383585763318192e-02  -3.4417162725065537e-02  -4.2094075613507170e-02  -3.4069629709791258e-02  -4.1518308532568764e-02  -3.7680446162535769e-02  -3.8192973706267237e-02  -1.8663117174302399e-02  -1.9981828118256280e-02  -2.3688910528365765e-02  -2.3852812453956335e-02  -2.1676525552351670e-02  -2.1816709509306545e-02  -4.1867401256110846e-02  -4.2035677562786186e-02  -4.1475274600443181e-02  -4.2074342023137527e-02  -4.2133779689394878e-02  -4.1902729014675795e-02  -2.2904155168373793e-02  -2.2457381026028383e-02  -4.5671654208677269e-02  -4.5448781258986243e-02  -5.0160922307126182e-02  -5.0075349561193382e-02  -4.6118398009698469e-02  -4.6393121025358204e-02  -3.4620574040342050e-02  -3.4167995042509038e-02  -4.8341450775817425e-02  -4.7828826406095863e-02  -5.1871410197789389e-02  -5.2317485071035973e-02  -3.5819571292466199e-02  -3.5553683410607030e-02  -3.3446631034398717e-02  -3.3158363503063941e-02  -3.9023357048917143e-02  -3.8913604323275758e-02  -1.6192941121535270e-02  -1.6080776779346138e-02  -3.4519303170094169e-02  -3.4216753226013287e-02  -4.7038933966403289e-02  -4.5584991411479953e-02  -4.7835848478340548e-02  -4.6234378908192916e-02  -5.0498984797510568e-02  -5.0316728515361182e-02  -5.2499318908355623e-02  -5.2449357082325905e-02  -3.2511196396917498e-02  -3.2195648014327588e-02  -3.8561372089987708e-02  -3.7778390766502599e-02  -5.0654509411375372e-02  -5.0063499037435705e-02  -5.3749925128067130e-02  -5.4406134259475068e-02  -4.5309980632889553e-02  -4.6224702732786949e-02  -4.1971113102962455e-02  -4.1349209050293413e-02  -3.4032172926433381e-02  -1.9294541130946873e-02  -1.9242765896612401e-02  -3.5786517638568868e-02  -2.0474048838142678e-02  -2.0775497116553250e-02  -1.9783342672472292e-02  -1.6562495134662722e-02  -1.5071819186815289e-02  -1.5155759574223148e-02  -3.4793181484062755e-02  -3.5003586023454644e-02  -1.5587694449254773e-02  -1.5737090533083063e-02  -2.0166965012587381e-02  -1.8902645670199544e-02  -1.9090814399916702e-02  -3.3416235721687226e-02  -3.3024839166318112e-02  -1.6363361529573472e-02  -1.6496587268451567e-02  -4.0148570958275842e-02  -3.9775118010026068e-02  -4.2754088541841866e-02  -4.2349729888291401e-02  -5.2016297768952405e-02  -5.2895142642726448e-02  -4.1249147210084304e-02  -4.1113590843363912e-02  -4.3286019647345693e-02  -4.8601762769032109e-02  -4.8724526271036593e-02  -4.5016857844822393e-02  -4.4964543248784995e-02  -4.0571080502124032e-02  -3.1926109405607916e-02  -3.1723962671679547e-02  -4.9381582818763911e-02  -4.8445485304494738e-02  -3.3628710071706133e-02  -3.3317927355942661e-02  -1.6006991246712260e-02  -1.6009711061220892e-02  -3.2974504496047677e-02  -3.2800526448522341e-02  -1.6660682862088178e-02  -1.6460680680343516e-02  -3.3811509014126932e-02  -3.3691572084017012e-02  -4.3427263083455056e-02  -1.9122131042339289e-02  -3.8061982496332608e-02  -3.7635049994199053e-02  -3.5238944931406120e-02  -3.5225338338533210e-02  -3.8109466198589383e-02  -3.7989096021854178e-02  -3.9846708288329730e-02  -4.3312761610440370e-02  -4.0374405632320753e-02  -4.4062749759680872e-02  -5.0691952759768309e-02  -5.0277890408404628e-02  -4.6470316671082014e-02  -4.7044935590159848e-02  -4.3098310583589219e-02  -4.3321918801859496e-02  -3.8256772500779281e-02  -3.7985925174568086e-02  -4.6112540615575098e-02  -4.5529254893827788e-02  -4.8321636518665743e-02  -4.8203253973824120e-02  -4.1546607694283512e-02  -4.2061589307814444e-02  -3.4104793101389294e-02  -3.4351123670922738e-02  -3.6085595602733965e-02  -3.5814072085878411e-02  -3.6785998276864879e-02  -3.7131404599932923e-02  -4.5725533859704223e-02  -4.5471216585647393e-02  -3.2356267715834511e-02  -3.2249362615735390e-02  -3.4303563090823636e-02  -3.4148175245129427e-02  -4.1863025597075484e-02  -4.2191069426352583e-02  -4.1563703473774756e-02  -4.1649236067543408e-02  -1.7958279748863153e-02  -1.7875435686140341e-02  -3.6233341955028420e-02  -3.6589682279148557e-02  -3.6823966034383246e-02  -3.6582484518154115e-02  -4.0405425348880100e-02  -4.02568257395