<?xml version="1.0"?>
<VTKFile type="UnstructuredGrid"  version="0.1"  >
<UnstructuredGrid>
<Piece  NumberOfPoints="1286" NumberOfCells="2474">
<Points>
<DataArray  type="Float64"  NumberOfComponents="3"  format="ascii">0 0 0  0 1 0  1 1 0  1 0 0  1.1 -0.1 0  -0.1 -0.1 0  1.1 1.1 0  -0.1 1.1 0  0.2504781826979086 0.4965467787758036 0  0.5000467322186759 0.4990696127947811 0  0 0.9499999999997918 0  0 0.8999999999995836 0  0 0.8499999999996529 0  0 0.7999999999999998 0  0 0.7500000000003466 0  0 0.7000000000006934 0  0 0.6500000000010401 0  0 0.6000000000013869 0  0 0.5500000000017335 0  0 0.5000000000020587 0  0 0.4500000000018723 0  0 0.4000000000016644 0  0 0.3500000000014564 0  0 0.3000000000012483 0  0 0.2500000000010403 0  0 0.2000000000008322 0  0 0.1500000000006241 0  0 0.100000000000416 0  0 0.05000000000020799 0  0.04999999999989965 0 0  0.09999999999981467 0 0  0.1499999999997036 0 0  0.1999999999995579 0 0  0.2499999999994121 0 0  0.2999999999992664 0 0  0.3499999999991206 0 0  0.3999999999989749 0 0  0.4499999999988292 0 0  0.4999999999986943 0 0  0.5499999999988151 0 0  0.5999999999989468 0 0  0.6499999999990784 0 0  0.69999999999921 0 0  0.7499999999993417 0 0  0.7999999999994734 0 0  0.8499999999996051 0 0  0.8999999999997368 0 0  0.9499999999998684 0 0  1 0.04999999999989965 0  1 0.09999999999981467 0  1 0.1499999999997036 0  1 0.1999999999995579 0  1 0.2499999999994121 0  1 0.2999999999992664 0  1 0.3499999999991206 0  1 0.3999999999989749 0  1 0.4499999999988292 0  1 0.4999999999986943 0  1 0.5499999999988151 0  1 0.5999999999989468 0  1 0.6499999999990784 0  1 0.69999999999921 0  1 0.7499999999993417 0  1 0.7999999999994734 0  1 0.8499999999996051 0  1 0.8999999999997368 0  1 0.9499999999998684 0  0.9499999999997918 1 0  0.8999999999995836 1 0  0.8499999999996529 1 0  0.7999999999999998 1 0  0.7500000000003466 1 0  0.7000000000006934 1 0  0.6500000000010401 1 0  0.6000000000013869 1 0  0.5500000000017335 1 0  0.5000000000020587 1 0  0.4500000000018723 1 0  0.4000000000016644 1 0  0.3500000000014564 1 0  0.3000000000012483 1 0  0.2500000000010403 1 0  0.2000000000008322 1 0  0.1500000000006241 1 0  0.100000000000416 1 0  0.05000000000020799 1 0  -0.1 1.05000000000004 0  -0.1 1.000000000000079 0  -0.1 0.9500000000001624 0  -0.1 0.9000000000003032 0  -0.1 0.850000000000444 0  -0.1 0.8000000000005848 0  -0.1 0.7500000000007256 0  -0.1 0.7000000000008665 0  -0.1 0.6500000000010508 0  -0.1 0.6000000000012352 0  -0.1 0.5500000000014196 0  -0.1 0.500000000001539 0  -0.1 0.4500000000014195 0  -0.1 0.4000000000013 0  -0.1 0.3500000000011588 0  -0.1 0.3000000000010178 0  -0.1 0.2500000000008986 0  -0.1 0.2000000000007579 0  -0.1 0.1500000000006174 0  -0.1 0.1000000000005272 0  -0.1 0.05000000000040083 0  -0.1 2.671196597248127e-13 0  -0.1 -0.0499999999998666 0  -0.0500000000000906 -0.1 0  -1.730560139634463e-13 -0.1 0  0.04999999999975802 -0.1 0  0.09999999999961506 -0.1 0  0.1499999999994613 -0.1 0  0.199999999999302 -0.1 0  0.2499999999991446 -0.1 0  0.2999999999990088 -0.1 0  0.3499999999988296 -0.1 0  0.3999999999986936 -0.1 0  0.4499999999985143 -0.1 0  0.4999999999984002 -0.1 0  0.5499999999985247 -0.1 0  0.5999999999986493 -0.1 0  0.6499999999987955 -0.1 0  0.6999999999989417 -0.1 0  0.7499999999990659 -0.1 0  0.7999999999992116 -0.1 0  0.8499999999993573 -0.1 0  0.8999999999994526 -0.1 0  0.949999999999584 -0.1 0  0.9999999999997226 -0.1 0  1.049999999999861 -0.1 0  1.1 -0.0500000000000906 0  1.1 -1.730560139634463e-13 0  1.1 0.04999999999975802 0  1.1 0.09999999999961506 0  1.1 0.1499999999994613 0  1.1 0.199999999999302 0  1.1 0.2499999999991446 0  1.1 0.2999999999990088 0  1.1 0.3499999999988296 0  1.1 0.3999999999986936 0  1.1 0.4499999999985143 0  1.1 0.4999999999984002 0  1.1 0.5499999999985247 0  1.1 0.5999999999986493 0  1.1 0.6499999999987955 0  1.1 0.6999999999989417 0  1.1 0.7499999999990659 0  1.1 0.7999999999992116 0  1.1 0.8499999999993573 0  1.1 0.8999999999994526 0  1.1 0.949999999999584 0  1.1 0.9999999999997226 0  1.1 1.049999999999861 0  1.05000000000004 1.1 0  1.000000000000079 1.1 0  0.9500000000001624 1.1 0  0.9000000000003032 1.1 0  0.850000000000444 1.1 0  0.8000000000005848 1.1 0  0.7500000000007256 1.1 0  0.7000000000008665 1.1 0  0.6500000000010508 1.1 0  0.6000000000012352 1.1 0  0.5500000000014196 1.1 0  0.500000000001539 1.1 0  0.4500000000014195 1.1 0  0.4000000000013 1.1 0  0.3500000000011588 1.1 0  0.3000000000010178 1.1 0  0.2500000000008986 1.1 0  0.2000000000007579 1.1 0  0.1500000000006174 1.1 0  0.1000000000005272 1.1 0  0.05000000000040083 1.1 0  2.671196597248127e-13 1.1 0  -0.0499999999998666 1.1 0  0.2537780900280212 0.4669097418702683 0  0.2608632715824186 0.4385252528668373 0  0.2710778355996091 0.4116639181734085 0  0.2838548059743933 0.3864779090758489 0  0.2986288404187361 0.3631419161962817 0  0.3150015442190237 0.341775819729867 0  0.3324230363347209 0.3227009472102441 0  0.3525162525103628 0.3043973275873778 0  0.3747089874441318 0.2878582273175268 0  0.3986093257861675 0.2736356263499579 0  0.4241292074657156 0.2620613356392955 0  0.4508844256873261 0.2535799220105447 0  0.4788749825633044 0.2486231205497097 0  0.5078864409399677 0.2477904744415262 0  0.5362053957542602 0.2511590912165238 0  0.5636906290397684 0.2583183866153192 0  0.5899421454502746 0.2687961814627845 0  0.6146720569530799 0.2819723801766859 0  0.6379673282021453 0.2976432792921497 0  0.6596273550873297 0.3155135918755226 0  0.679332229432653 0.3351428255782113 0  0.6973727717277423 0.3567866076231913 0  0.7131352996713156 0.3798278350249664 0  0.7265301481160222 0.4043052540332006 0  0.7372180808644251 0.4301365625777048 0  0.7448725921856356 0.4571750852427686 0  0.74894615396608 0.4852012976219823 0  0.7490068064027733 0.5138558285052537 0  0.7451059445567093 0.541625494636194 0  0.7374467702438456 0.5691130122450812 0  0.7267662110046824 0.5951079740167012 0  0.7133208834054742 0.6197551979424476 0  0.6973876047032818 0.6430261229765613 0  0.6793404152759247 0.6646088339848478 0  0.659467056231666 0.6843173508384667 0  0.6376326296586396 0.7022087281247351 0  0.6143167433109704 0.717768528855863 0  0.5892068591862052 0.7310246055413583 0  0.5629208938135839 0.7413902549536818 0  0.5350182219651092 0.7485466862338456 0  0.506336467017265 0.7518291732188258 0  0.4773085298817761 0.7508767395924381 0  0.4490646156501384 0.7457916348613501 0  0.4221012591910039 0.7372162601312109 0  0.3963278150654799 0.7255928605931072 0  0.3719789767618839 0.711286424752174 0  0.3490498554999041 0.6944831141792889 0  0.3279298735049127 0.6755648179281528 0  0.3088678924077873 0.6548233850032112 0  0.2916622503627365 0.6318610246898688 0  0.2770487964530982 0.6074584661052145 0  0.2651912261557382 0.5814694891755877 0  0.2564871981371828 0.5542238858674602 0  0.2514237180248816 0.5258076862753208 0  0.5016877275783714 0.6292627710303151 0  0.5094412012777039 0.362678808656083 0  0.6449980923961968 0.4978299114693108 0  0.349779377297264 0.4978107265877713 0  0.3991654176907047 0.4085619255831195 0  0.3939886533009609 0.5883279409449536 0  0.5902968304268411 0.3929193785300863 0  0.5892742555012073 0.6063006416247803 0  0.4327048041976466 0.6546899792385805 0  0.4850383941787932 0.6911813238382742 0  0.5455040895944157 0.6881230330094223 0  0.4302463789943106 0.3406071016062442 0  0.4872710227565691 0.3059509034441139 0  0.5486766289243635 0.3110372812125627 0  0.6570538212104126 0.5907877447869434 0  0.6575453098053134 0.4090188808219026 0  0.3370438170734273 0.5781452030713103 0  0.3401103102579839 0.4174666126831497 0  0.3785226549360158 0.6426673073914845 0  0.381838838524342 0.3529879238000597 0  0.5946574620428593 0.6580693632974092 0  0.5955558807482924 0.341434850246626 0  0.6959669030366308 0.4997342387805174 0  0.6946884500006839 0.5541467155606415 0  0.6947672460865454 0.4459950514019679 0  0.3040848824757982 0.4508956549472815 0  0.2929025802715518 0.5031001185544642 0  0.6377998195934412 0.3650300768031733 0  0.6377368342062132 0.6355661177856109 0  0.2997423207115958 0.5538483240577412 0  0.4240568133561631 0.5123307745597281 0  0.4410150282029803 0.6982414753223209 0  0.4431378590112578 0.3006338040001076 0  0.3468311199146472 0.3752033102160152 0  0.3429859911645395 0.6213755578794423 0  0.5631837961034348 0.523906421149644 0  0.5215019046904561 0.4396269828868223 0  0.5202447261497337 0.2827951834047712 0  0.5181927445969423 0.716311349686213 0  0.4677890314422047 0.575064994973147 0  0.469708580106229 0.4445742890138204 0  0.3960824801778226 0.6739291120173446 0  0.3989940490373584 0.3251490130957477 0  0.6163042566297128 0.4491972046291938 0  0.6146588283461577 0.5477543521552762 0  0.5810143849639294 0.3107966657420525 0  0.5802531440535302 0.6885199497200839 0  0.3826180503788849 0.5357067430875455 0  0.3770520727101578 0.4562056824171129 0  0.44231703758192 0.4071650917133781 0  0.7136602332866331 0.5290568085091036 0  0.7145534662429072 0.4686979437694602 0  0.5506128691621839 0.6242918969843968 0  0.5536785466411985 0.3739594479989001 0  0.6951764172917391 0.5872687305776718 0  0.6947747622384388 0.4117347725335451 0  0.4195549118890799 0.6217491991487604 0  0.3047618446088725 0.4153708767696286 0  0.4729761528402353 0.7249214109602778 0  0.4744124616508356 0.2743565005195173 0  0.4589860958754017 0.6779635918064151 0  0.4578662300845199 0.3213810355016356 0  0.6667989572201372 0.3760557668829396 0  0.6669790829424725 0.6230767507320289 0  0.6278117961895933 0.3335508568304123 0  0.6277948951780251 0.6657107698846587 0  0.2809712394991706 0.4685279535111758 0  0.3047816069297504 0.5844264376450732 0  0.7251710254359557 0.4993318972890315 0  0.5168946515094933 0.5635825379421527 0  0.2802519194518187 0.5327323005303071 0  0.321644491558954 0.3887511663080335 0  0.4553346151664024 0.6195375358810066 0  0.5653563615616879 0.2860382940223707 0  0.5638090002611205 0.7134340322576336 0  0.3412850399048108 0.5394939630492909 0  0.3154747168948333 0.5242621410020295 0  0.56608
[...]
<PointData  Scalars="state"> 
<DataArray  type="Float64"  Name="state"  format="ascii">0.0000000000000000e+00  0.0000000000000000e+00  0.0000000000000000e+00  0.0000000000000000e+00  0.0000000000000000e+00  0.0000000000000000e+00  0.0000000000000000e+00  0.0000000000000000e+00  -2.8603549636781602e-02  -5.2623678910679369e-03  0.0000000000000000e+00  0.0000000000000000e+00  0.0000000000000000e+00  0.0000000000000000e+00  0.0000000000000000e+00  0.0000000000000000e+00  0.0000000000000000e+00  0.0000000000000000e+00  0.0000000000000000e+00  0.0000000000000000e+00  0.0000000000000000e+00  0.0000000000000000e+00  0.0000000000000000e+00  0.0000000000000000e+00  0.0000000000000000e+00  0.0000000000000000e+00  0.0000000000000000e+00  0.0000000000000000e+00  0.0000000000000000e+00  0.0000000000000000e+00  0.0000000000000000e+00  0.0000000000000000e+00  0.0000000000000000e+00  0.0000000000000000e+00  0.0000000000000000e+00  0.0000000000000000e+00  0.0000000000000000e+00  0.0000000000000000e+00  0.0000000000000000e+00  0.0000000000000000e+00  0.0000000000000000e+00  0.0000000000000000e+00  0.0000000000000000e+00  0.0000000000000000e+00  0.0000000000000000e+00  0.0000000000000000e+00  0.0000000000000000e+00  0.0000000000000000e+00  0.0000000000000000e+00  0.0000000000000000e+00  0.0000000000000000e+00  0.0000000000000000e+00  0.0000000000000000e+00  0.0000000000000000e+00  0.0000000000000000e+00  0.0000000000000000e+00  0.0000000000000000e+00  0.0000000000000000e+00  0.0000000000000000e+00  0.0000000000000000e+00  0.0000000000000000e+00  0.0000000000000000e+00  0.0000000000000000e+00  0.0000000000000000e+00  0.0000000000000000e+00  0.0000000000000000e+00  0.0000000000000000e+00  0.0000000000000000e+00  0.0000000000000000e+00  0.0000000000000000e+00  0.0000000000000000e+00  0.0000000000000000e+00  0.0000000000000000e+00  0.0000000000000000e+00  0.0000000000000000e+00  0.0000000000000000e+00  0.0000000000000000e+00  0.0000000000000000e+00  0.0000000000000000e+00  0.0000000000000000e+00  0.0000000000000000e+00  0.0000000000000000e+00  0.0000000000000000e+00  0.0000000000000000e+00  0.0000000000000000e+00  0.0000000000000000e+00  0.0000000000000000e+00  0.0000000000000000e+00  0.0000000000000000e+00  0.0000000000000000e+00  0.0000000000000000e+00  0.0000000000000000e+00  0.0000000000000000e+00  0.0000000000000000e+00  0.0000000000000000e+00  0.0000000000000000e+00  0.0000000000000000e+00  0.0000000000000000e+00  0.0000000000000000e+00  0.0000000000000000e+00  0.0000000000000000e+00  0.0000000000000000e+00  0.0000000000000000e+00  0.0000000000000000e+00  0.0000000000000000e+00  0.0000000000000000e+00  0.0000000000000000e+00  0.0000000000000000e+00  0.0000000000000000e+00  0.0000000000000000e+00  0.0000000000000000e+00  0.0000000000000000e+00  0.0000000000000000e+00  0.0000000000000000e+00  0.0000000000000000e+00  0.0000000000000000e+00  0.0000000000000000e+00  0.0000000000000000e+00  0.0000000000000000e+00  0.0000000000000000e+00  0.0000000000000000e+00  0.0000000000000000e+00  0.0000000000000000e+00  0.0000000000000000e+00  0.0000000000000000e+00  0.0000000000000000e+00  0.0000000000000000e+00  0.0000000000000000e+00  0.0000000000000000e+00  0.0000000000000000e+00  0.0000000000000000e+00  0.0000000000000000e+00  0.0000000000000000e+00  0.0000000000000000e+00  0.0000000000000000e+00  0.0000000000000000e+00  0.0000000000000000e+00  0.0000000000000000e+00  0.0000000000000000e+00  0.0000000000000000e+00  0.0000000000000000e+00  0.0000000000000000e+00  0.0000000000000000e+00  0.0000000000000000e+00  0.0000000000000000e+00  0.0000000000000000e+00  0.0000000000000000e+00  0.0000000000000000e+00  0.0000000000000000e+00  0.0000000000000000e+00  0.0000000000000000e+00  0.0000000000000000e+00  0.0000000000000000e+00  0.0000000000000000e+00  0.0000000000000000e+00  0.0000000000000000e+00  0.0000000000000000e+00  0.0000000000000000e+00  0.0000000000000000e+00  0.0000000000000000e+00  0.0000000000000000e+00  0.0000000000000000e+00  0.0000000000000000e+00  0.0000000000000000e+00  0.0000000000000000e+00  0.0000000000000000e+00  0.0000000000000000e+00  0.0000000000000000e+00  0.0000000000000000e+00  0.0000000000000000e+00  0.0000000000000000e+00  0.0000000000000000e+00  0.0000000000000000e+00  0.0000000000000000e+00  0.0000000000000000e+00  0.0000000000000000e+00  0.0000000000000000e+00  0.0000000000000000e+00  -2.8479744336701699e-02  -2.8554546616253132e-02  -2.8577289214827800e-02  -2.8647314577438677e-02  -2.8751228941196819e-02  -2.8966851948323571e-02  -2.8962404760500274e-02  -2.9017415328893979e-02  -2.8996160674082297e-02  -2.8825776735314855e-02  -2.8553980461884742e-02  -2.8496502167238039e-02  -2.8474345231066785e-02  -2.8303540119566550e-02  -2.8354751991641364e-02  -2.8500378605911654e-02  -2.8546746817283013e-02  -2.8821516851981994e-02  -2.8836824707908573e-02  -2.8878524867797219e-02  -2.8861987355119918e-02  -2.8670598422927313e-02  -2.8772244399160044e-02  -2.8559066457666940e-02  -2.8237725427576646e-02  -2.8270002940431724e-02  -2.8166857606020258e-02  -2.8162302365655020e-02  -2.8269524915994500e-02  -2.8240349041133841e-02  -2.8563450616600511e-02  -2.8773665724644688e-02  -2.8673433506127378e-02  -2.8857622083659176e-02  -2.8858973885329497e-02  -2.8813208833485843e-02  -2.8789865625595098e-02  -2.8493487907990153e-02  -2.8428631805818810e-02  -2.8265107069038519e-02  -2.8200782217409372e-02  -2.8352850659186826e-02  -2.8356754366866823e-02  -2.8412596359166001e-02  -2.8693771197754181e-02  -2.8890246241753466e-02  -2.8955862623919422e-02  -2.8959868104931799e-02  -2.9035972415831415e-02  -2.8961576999670054e-02  -2.8712880908780054e-02  -2.8670301027813982e-02  -2.8641808600092390e-02  -2.8526343258233867e-02  -1.1898328547038477e-02  -1.2746638533452292e-02  -1.3567216839490800e-02  -1.3990597549816250e-02  -1.2863626312535622e-02  -1.2867175930134565e-02  -1.3239344833909931e-02  -1.3155685793508983e-02  -1.6003801993259379e-02  -1.8536953353900421e-02  -1.8873134328371441e-02  -1.6862929154922112e-02  -1.8990164855829827e-02  -1.9075247048534378e-02  -1.7547133821848335e-02  -1.7585339467263379e-02  -1.7424017445925206e-02  -1.7482553813119903e-02  -1.8225104038737668e-02  -1.8643637207880776e-02  -1.7860877775674872e-02  -1.7927274235575365e-02  -1.8992030277467951e-02  -1.9956024488324727e-02  -1.9961509803380410e-02  -1.9994370882453410e-02  -2.0589930939308238e-02  -1.9178139921501230e-02  -1.9286315284334974e-02  -2.0751320495094077e-02  -7.8594148365123961e-03  -2.0448410862292529e-02  -2.0662181403901841e-02  -1.9975248322243538e-02  -1.9786975880993419e-02  -7.2668061382156687e-03  -7.1884458561149263e-03  -2.1997579501424329e-02  -2.1800958914331287e-02  -8.0573783686219008e-03  -7.1387539278461015e-03  -2.0310293062217769e-02  -2.0380916833963203e-02  -1.1896712767410686e-02  -1.1611820256221225e-02  -2.0685101919565328e-02  -2.0584071177083788e-02  -1.1267630911423077e-02  -1.2181948031728415e-02  -1.0242919621301702e-02  -2.1799680979190834e-02  -2.2020509359908333e-02  -1.2533093562663839e-02  -1.2745335019962667e-02  -2.1845939031999634e-02  -2.1831580376895570e-02  -1.3663663990220100e-02  -2.1791101976203341e-02  -2.2950329263788774e-02  -2.3129274054525997e-02  -1.7493871483141039e-02  -1.7830484448488379e-02  -2.1306400510209662e-02  -2.1284371834827450e-02  -2.1368320965990801e-02  -2.1323843385774130e-02  -2.2603709460240227e-02  -2.1673969983334009e-02  -2.3076149490720392e-02  -6.9221384662825573e-03  -2.2753661382929231e-02  -2.1740307348031850e-02  -1.1789627371470251e-02  -2.3041275584107294e-02  -2.2903912241447541e-02  -1.5519675463179833e-02  -1.7932574232050528e-02  -1.6616654878941393e-02  -1.6498098456070861e-02  -1.5761438424332155e-02  -1.5600966774134587e-02  -1.5925049250148034e-02  -1.5507754312523566e-02  -1.5553583577128700e-02  -1.5669811559735358e-02  -1.5863796192544723e-02  -1.5191141136948414e-02  -1.6730470687362674e-02  -2.1622210315716719e-02  -2.2911772916101698e-02  -2.2760873905344585e-02  -1.5455013828669019e-02  -1.6350079675078732e-02  -2.1920319408263028e-02  -2.1706280270670959e-02  -7.5336319093509321e-03  -1.5841584771273787e-02  -1.5916860807820135e-02  -1.4202899078705368e-02  -2.3355190874492959e-02  -2.3352306686537053e-02  -1.7524080839851800e-02  -2.2257020201522801e-02  -2.2627279524604783e-02  -2.2947726460305067e-02  -2.2904101607560522e-02  -1.6855290503915106e-02  -1.8353441020098622e-02  -1.8549911472077286e-02  -2.4466547373273993e-02  -2.3639720164517274e-02  -2.3883978251246048e-02  -2.3766707138319444e-02  -2.3429550591849015e-02  -2.3619187275051842e-02  -2.3167405060378073e-02  -2.3145906910227346e-02  -1.7259823465345520e-02  -1.8011543032017203e-02  -1.8022626522324760e-02  -1.0568883032578464e-02  -1.7294675067834935e-02  -1.7074847230468627e-02  -1.8233741465973386e-02  -8.4893376778477029e-03  -1.6260279518753817e-02  -1.6201817508657072e-02  -1.3584275679545453e-02  -1.6206467164569374e-02  -1.6390254525577165e-02  -2.3836056594378572e-02  -2.3925454323079284e-02  -2.4363137024276321e-02  -2.3522115619760385e-02  -2.3520015779572245e-02  -1.8183994909343290e-02  -8.9909268442838787e-03  -1.9058120876950132e-02  -1.8466934738466050e-02  -2.0348307821577427e-02  -2.0561630390783892e-02  -2.3711610644022243e-02  -1.5541683831408784e-02  -2.4278428945923483e-02  -2.4096114446718386e-02  -1.9135094599470825e-02  -1.9363828087096170e-02  -9.5816448831622745e-03  -1.0395970259196538e-02  -2.4715307973871569e-02  -2.4655472316936444e-02  -1.5862434396833127e-02  -9.5090864750192981e-03  -8.7982157999376403e-03  -2.0861553405828428e-02  -2.1131486567662106e-02  -1.6807430048775406e-02  -2.4721078735570754e-02  -1.9917806178649987e-02  -1.5141590456362160e-02  -1.5035215876862367e-02  -2.3573285670503624e-02  -6.4020134716151799e-03  -2.3988206299644675e-02  -2.3991965583015206e-02  -1.8309594560123703e-02  -1.8308593560503239e-02  -2.1109431437229639e-02  -2.0955845641191531e-02  -9.5629436322701190e-03  -1.8144315515356158e-02  -1.7978847739922935e-02  -1.4434200780796214e-02  -2.4450208266088586e-02  -2.4559153719958884e-02  -2.4184822393797607e-02  -2.4016519233002714e-02  -2.4610845855823304e-02  -2.4561788490314918e-02  -1.4537980529052155e-02  -1.3253965221367129e-02  -1.8469373294206864e-02  -1.8451358882868439e-02  -2.4216540293471488e-02  -9.6400094371547652e-03  -1.4382883590973214e-02  -1.2983301928082247e-02  -1.8192304808322374e-02  -1.4506817105130621e-02  -1.4592665444132114e-02  -6.3951889734227933e-03  -1.7510226002842119e-02  -1.7701666126328175e-02  -2.3833948090233783e-02  -2.3827570916251067e-02  -2.4273489075794019e-02  -5.0911329068582749e-02  -5.1121915934035179e-02  -5.1177823651401888e-02  -5.1519455640694427e-02  -4.4946028779162400e-02  -4.4346175126416053e-02  -4.5998698838092496e-02  -4.5949594470919793e-02  -4.6358527519774782e-02  -4.6522977576835205e-02  -4.7280563737402234e-02  -4.7244675499116186e-02  -3.9792817254680833e-02  -3.9750192381515830e-02  -3.9474173763632638e-02  -3.9935954264923496e-02  -4.9792926991308779e-02  -4.9396044619096628e-02  -4.9397912967516305e-02  -4.9780632842204409e-02  -4.7006860058849881e-02  -4.6562418226332149e-02  -4.6736616545805437e-02  -4.6766080995093134e-02  -4.2635207123104896e-02  -4.2223255656280455e-02  -4.1206218311176254e-02  -4.1952061568683578e-02  -4.1395756245644955e-02  -4.2373730186640847e-02  -4.3173126869856276e-02  -4.2946472074959684e-02  -3.8748230453352114e-02  -3.1458939439413962e-02  -3.8903374035872768e-02  -3.1641143898564469e-02  -4.2654708291926732e-02  -4.2758348299241071e-02  -3.0617266428769562e-02  -3.0421365639862877e-02  -4.2191975788713247e-02  -4.2649342959618301e-02  -3.7720843158101668e-02  -3.7401494252490758e-02  -4.0806211949768266e-02  -3.8031348522130672e-02  -3.8310343033569991e-02  -4.0014330808864268e-02  -3.9982084815668770e-02  -3.7974434544375914e-02  -3.8386614894599456e-02  -3.7472390696939285e-02  -3.7337368350736637e-02  -4.0105058106411982e-02  -3.1838863517605884e-02  -3.3606254567761187e-02  -3.1226178536406381e-02  -3.1208327168597488e-02  -3.0488981547754115e-02  -2.9896441776857002e-02  -5.0433047460742494e-02  -4.9944084155479886e-02  -5.1418439228951729e-02  -5.1508594322121196e-02  -4.1390034064036532e-02  -4.0982796865755990e-02  -4.0881825050238164e-02  -4.0476191782002839e-02  -5.0372594174078272e-02  -5.0480824169159035e-02  -5.2430083541450012e-02  -5.2240985530997236e-02  -4.2653549900890167e-02  -4.2830467717351967e-02  -3.0768250223981317e-02  -3.1247490327789128e-02  -2.9793033675460517e-02  -2.9366255573379144e-02  -4.0194864625923150e-02  -4.0079588561779733e-02  -2.9130409641804696e-02  -2.9365756193131146e-02  -3.9656202632482943e-02  -4.0087365962031600e-02  -3.7269217299089684e-02  -4.2426873934327085e-02  -3.7053269405018505e-02  -4.2389983254052868e-02  -3.7247107683497017e-02  -3.7168353921973561e-02  -3.6848698830822001e-02  -3.7194694788440785e-02  -3.7439628833824602e-02  -3.7209857404644775e-02  -3.7893979778310070e-02  -3.8281918134064757e-02  -4.1791403095599658e-02  -4.1457989302548424e-02  -4.2621548317820286e-02  -4.2350529356593246e-02  -3.6722315519958484e-02  -3.7001932322205673e-02  -4.2706368865680307e-02  -4.2683623531696621e-02  -3.7180546556857944e-02  -3.6827838366623719e-02  -4.7967619492606917e-02  -4.7614152423871250e-02  -3.7487081863963032e-02  -3.7546119994221507e-02  -3.6059640545906359e-02  -3.6263452494147842e-02  -2.5629819737334688e-02  -2.5835268361502524e-02  -4.9355280420121543e-02  -4.8819870753287115e-02  -3.7187486629688314e-02  -3.7200542974275733e-02  -2.6212277982761510e-02  -2.6324568440568522e-02  -2.5432763509420565e-02  -2.5536315112937205e-02  -2.4369220834029391e-02  -4.4665075093384701e-02  -4.4530606200542999e-02  -4.2892147089690462e-02  -4.2654791714605775e-02  -4.3581484819703545e-02  -4.3772672847284338e-02  -4.1791988419504697e-02  -4.2070540341017627e-02  -5.1456808756025506e-02  -5.1180565134470134e-02  -5.1873557649645623e-02  -5.1667522937971624e-02  -3.6417584623901482e-02  -3.6143720388461864e-02  -4.1574286178016923e-02  -4.2222462643188692e-02  -3.6405389933367643e-02  -3.6798888485058877e-02  -2.5152054466470154e-02  -2.5037432225299208e-02  -2.5228243436180870e-02  -1.3908747658266423e-02  -1.3967725986801804e-02  -1.3931683388436294e-02  -1.3863886856053631e-02  -2.3259716066804548e-02  -2.3449044728940556e-02  -4.6971235922625455e-02  -4.6757394538383470e-02  -4.7151289338858517e-02  -4.7215528427703123e-02  -4.5997110094924604e-02  -4.5875860750338109e-02  -5.2653798035786202e-02  -5.3056439391707719e-02  -4.5128515658815940e-02  -4.4841305771408262e-02  -5.2909778693710295e-02  -5.2931334288209279e-02  -3.5794801304673891e-02  -3.5852818118612170e-02  -2.8425281286006174e-02  -2.8484854031690487e-02  -3.5949931959881914e-02  -3.5629567720203856e-02  -3.4596157953402262e-02  -3.9530530207111038e-02  -3.8820128758000949e-02  -2.2807615085009364e-02  -2.2886609816796695e-02  -4.7708508721929013e-02  -4.7971406221510068e-02  -4.3355390258141363e-02  -4.3574974902209303e-02  -4.6313906286832490e-02  -4.5735176203482407e-02  -4.3211464040355821e-02  -4.3702067393562839e-02  -3.5463805881339731e-02  -3.5179948700000102e-02  -4.1143861765092604e-02  -4.1120506290369022e-02  -4.1806819628010028e-02  -4.2519043837333466e-02  -2.7562385766652323e-02  -2.4075518257605635e-02  -2.4321256096783192e-02  -4.8484696305661878e-02  -4.8709996251803216e-02  -2.3934685933079493e-02  -2.3633148764584715e-02  -2.2798227241158264e-02  -2.2548373645003356e-02  -3.6230513449660703e-02  -4.6949614568834140e-02  -4.6539431347300868e-02  -2.2604121955524206e-02  -2.2397547770192285e-02  -3.5818062457063898e-02  -4.3414834854878986e-02  -3.5764723754651180e-02  -4.3384623486756715e-02  -2.2435846026415917e-02  -2.2615761063173635e-02  -4.0953232501665451e-02  -4.0839231848380231e-02  -4.1082347648805806e-02  -4.1122980217043012e-02  -3.4782450502883679e-02  -3.4700984397307344e-02  -4.7906830058840263e-02  -4.7665221711838048e-02  -3.5212048757508593e-02  -4.2742830121322822e-02  -3.4931437567417734e-02  -4.2222554461258159e-02  -3.8463572006360781e-02  -3.8989759972149568e-02  -1.9049986830129376e-02  -2.0425784991714088e-02  -2.3770894956977540e-02  -2.3819025552155579e-02  -2.1779055684856996e-02  -2.1920606560213891e-02  -4.2406648766068041e-02  -4.2389563361560099e-02  -4.2008349190102254e-02  -4.2508322224154321e-02  -4.2071206605081291e-02  -4.2052244634697020e-02  -2.2418065068389642e-02  -2.2129112937204973e-02  -4.5534460746320796e-02  -4.5555999318535774e-02  -5.0778976837261014e-02  -5.0718018016290313e-02  -4.6673499826810017e-02  -4.6858458673574861e-02  -3.4873712384867341e-02  -3.4548081042630796e-02  -4.8839815466649554e-02  -4.8378576371319773e-02  -5.1464289513751996e-02  -5.1568384164110408e-02  -3.5444911568721649e-02  -3.5275522793764495e-02  -3.4242674645712345e-02  -3.3987483390412174e-02  -3.9532595426228556e-02  -3.9353643558826520e-02  -1.6071491662856017e-02  -1.6016412792546071e-02  -3.4241517703034720e-02  -3.4203725703074249e-02  -4.6215411466295910e-02  -4.4873931523645653e-02  -4.6636002718566584e-02  -4.5183406703232218e-02  -5.0891203314951415e-02  -5.0766927930715529e-02  -5.2951548896620210e-02  -5.2874395746828083e-02  -3.3111684262994892e-02  -3.2903646834072042e-02  -3.7644678003363678e-02  -3.7126090221025615e-02  -4.9594377175824697e-02  -4.9390112243848407e-02  -5.3175808271325280e-02  -5.3468107062193661e-02  -4.4447486822520033e-02  -4.5047977802307147e-02  -4.2495234063754758e-02  -4.1953627554955866e-02  -3.3373743959579288e-02  -1.9432417331059316e-02  -1.9459661012609802e-02  -3.5006300072888713e-02  -2.0128929838310269e-02  -2.0297650640474243e-02  -2.0343150491105015e-02  -1.7023869231959997e-02  -1.5113138459426830e-02  -1.5200674495834900e-02  -3.3794418875235023e-02  -3.4035226015410064e-02  -1.5487247730417014e-02  -1.5581707828744119e-02  -1.9795518237218229e-02  -1.9071596724691921e-02  -1.9259321051509359e-02  -3.3372286901917229e-02  -3.3131555583189504e-02  -1.6311862368873928e-02  -1.6370955586751581e-02  -4.1083216737791410e-02  -4.0724130031781047e-02  -4.3267776199960140e-02  -4.2982488894977439e-02  -5.1199186297288868e-02  -5.1662350992529596e-02  -4.0965724443198015e-02  -4.1098309944026551e-02  -4.2356698580339240e-02  -4.9072056284164417e-02  -4.9127667878233305e-02  -4.5987919740695472e-02  -4.5957253608667217e-02  -4.1951285940472996e-02  -3.2644949955275893e-02  -3.2464362565526192e-02  -4.8197588474912040e-02  -4.7644893809414897e-02  -3.4404944936495659e-02  -3.4172841685163685e-02  -1.6197306956963455e-02  -1.6255133315215765e-02  -3.3674616543844085e-02  -3.3496067783511274e-02  -1.6928639827278623e-02  -1.6733120046715476e-02  -3.3411973339578113e-02  -3.3243135715960957e-02  -4.2439189614786002e-02  -1.8708597000049537e-02  -3.8385722212191935e-02  -3.8104462760189986e-02  -3.5727039419445272e-02  -3.5825487685143660e-02  -3.8424592946380488e-02  -3.8462164302149354e-02  -3.8899717643829934e-02  -4.2397329130906339e-02  -3.9279701299573845e-02  -4.2870854362983143e-02  -5.0110963297088355e-02  -5.0000880833979841e-02  -4.6036502357258494e-02  -4.6343794313197961e-02  -4.2827472604372245e-02  -4.2747366325265740e-02  -3.9270243626965740e-02  -3.9002557788181506e-02  -4.6556946240147529e-02  -4.6048345145916159e-02  -4.8982130112502471e-02  -4.8844940171323209e-02  -4.2331029358201849e-02  -4.2810882287198218e-02  -3.4268486776100428e-02  -3.4532543534303441e-02  -3.6350129237072391e-02  -3.6073714083686828e-02  -3.6575025902215834e-02  -3.6739444316114513e-02  -4.6008322238910417e-02  -4.5737401994994729e-02  -3.2963537116853549e-02  -3.2851044793998134e-02  -3.3566367811449060e-02  -3.3351009096368914e-02  -4.2539086994279954e-02  -4.2880818122106923e-02  -4.2237460913692106e-02  -4.2213648968609400e-02  -1.8267376892045478e-02  -1.8140749600667638e-02  -3.6700725201980818e-02  -3.7063696148095876e-02  -3.7904521088515310e-02  -3.7647308674230308e-02  -4.0831205824267205e-02  -4.06258615172