<?xml version="1.0"?>
<VTKFile type="UnstructuredGrid"  version="0.1"  >
<UnstructuredGrid>
<Piece  NumberOfPoints="1286" NumberOfCells="2474">
<Points>
<DataArray  type="Float64"  NumberOfComponents="3"  format="ascii">0 0 0  0 1 0  1 1 0  1 0 0  1.1 -0.1 0  -0.1 -0.1 0  1.1 1.1 0  -0.1 1.1 0  0.2505653251554073 0.4965047401323218 0  0.4999725003633759 0.4990615147725763 0  0 0.9499999999997918 0  0 0.8999999999995836 0  0 0.8499999999996529 0  0 0.7999999999999998 0  0 0.7500000000003466 0  0 0.7000000000006934 0  0 0.6500000000010401 0  0 0.6000000000013869 0  0 0.5500000000017335 0  0 0.5000000000020587 0  0 0.4500000000018723 0  0 0.4000000000016644 0  0 0.3500000000014564 0  0 0.3000000000012483 0  0 0.2500000000010403 0  0 0.2000000000008322 0  0 0.1500000000006241 0  0 0.100000000000416 0  0 0.05000000000020799 0  0.04999999999989965 0 0  0.09999999999981467 0 0  0.1499999999997036 0 0  0.1999999999995579 0 0  0.2499999999994121 0 0  0.2999999999992664 0 0  0.3499999999991206 0 0  0.3999999999989749 0 0  0.4499999999988292 0 0  0.4999999999986943 0 0  0.5499999999988151 0 0  0.5999999999989468 0 0  0.6499999999990784 0 0  0.69999999999921 0 0  0.7499999999993417 0 0  0.7999999999994734 0 0  0.8499999999996051 0 0  0.8999999999997368 0 0  0.9499999999998684 0 0  1 0.04999999999989965 0  1 0.09999999999981467 0  1 0.1499999999997036 0  1 0.1999999999995579 0  1 0.2499999999994121 0  1 0.2999999999992664 0  1 0.3499999999991206 0  1 0.3999999999989749 0  1 0.4499999999988292 0  1 0.4999999999986943 0  1 0.5499999999988151 0  1 0.5999999999989468 0  1 0.6499999999990784 0  1 0.69999999999921 0  1 0.7499999999993417 0  1 0.7999999999994734 0  1 0.8499999999996051 0  1 0.8999999999997368 0  1 0.9499999999998684 0  0.9499999999997918 1 0  0.8999999999995836 1 0  0.8499999999996529 1 0  0.7999999999999998 1 0  0.7500000000003466 1 0  0.7000000000006934 1 0  0.6500000000010401 1 0  0.6000000000013869 1 0  0.5500000000017335 1 0  0.5000000000020587 1 0  0.4500000000018723 1 0  0.4000000000016644 1 0  0.3500000000014564 1 0  0.3000000000012483 1 0  0.2500000000010403 1 0  0.2000000000008322 1 0  0.1500000000006241 1 0  0.100000000000416 1 0  0.05000000000020799 1 0  -0.1 1.05000000000004 0  -0.1 1.000000000000079 0  -0.1 0.9500000000001624 0  -0.1 0.9000000000003032 0  -0.1 0.850000000000444 0  -0.1 0.8000000000005848 0  -0.1 0.7500000000007256 0  -0.1 0.7000000000008665 0  -0.1 0.6500000000010508 0  -0.1 0.6000000000012352 0  -0.1 0.5500000000014196 0  -0.1 0.500000000001539 0  -0.1 0.4500000000014195 0  -0.1 0.4000000000013 0  -0.1 0.3500000000011588 0  -0.1 0.3000000000010178 0  -0.1 0.2500000000008986 0  -0.1 0.2000000000007579 0  -0.1 0.1500000000006174 0  -0.1 0.1000000000005272 0  -0.1 0.05000000000040083 0  -0.1 2.671196597248127e-13 0  -0.1 -0.0499999999998666 0  -0.0500000000000906 -0.1 0  -1.730560139634463e-13 -0.1 0  0.04999999999975802 -0.1 0  0.09999999999961506 -0.1 0  0.1499999999994613 -0.1 0  0.199999999999302 -0.1 0  0.2499999999991446 -0.1 0  0.2999999999990088 -0.1 0  0.3499999999988296 -0.1 0  0.3999999999986936 -0.1 0  0.4499999999985143 -0.1 0  0.4999999999984002 -0.1 0  0.5499999999985247 -0.1 0  0.5999999999986493 -0.1 0  0.6499999999987955 -0.1 0  0.6999999999989417 -0.1 0  0.7499999999990659 -0.1 0  0.7999999999992116 -0.1 0  0.8499999999993573 -0.1 0  0.8999999999994526 -0.1 0  0.949999999999584 -0.1 0  0.9999999999997226 -0.1 0  1.049999999999861 -0.1 0  1.1 -0.0500000000000906 0  1.1 -1.730560139634463e-13 0  1.1 0.04999999999975802 0  1.1 0.09999999999961506 0  1.1 0.1499999999994613 0  1.1 0.199999999999302 0  1.1 0.2499999999991446 0  1.1 0.2999999999990088 0  1.1 0.3499999999988296 0  1.1 0.3999999999986936 0  1.1 0.4499999999985143 0  1.1 0.4999999999984002 0  1.1 0.5499999999985247 0  1.1 0.5999999999986493 0  1.1 0.6499999999987955 0  1.1 0.6999999999989417 0  1.1 0.7499999999990659 0  1.1 0.7999999999992116 0  1.1 0.8499999999993573 0  1.1 0.8999999999994526 0  1.1 0.949999999999584 0  1.1 0.9999999999997226 0  1.1 1.049999999999861 0  1.05000000000004 1.1 0  1.000000000000079 1.1 0  0.9500000000001624 1.1 0  0.9000000000003032 1.1 0  0.850000000000444 1.1 0  0.8000000000005848 1.1 0  0.7500000000007256 1.1 0  0.7000000000008665 1.1 0  0.6500000000010508 1.1 0  0.6000000000012352 1.1 0  0.5500000000014196 1.1 0  0.500000000001539 1.1 0  0.4500000000014195 1.1 0  0.4000000000013 1.1 0  0.3500000000011588 1.1 0  0.3000000000010178 1.1 0  0.2500000000008986 1.1 0  0.2000000000007579 1.1 0  0.1500000000006174 1.1 0  0.1000000000005272 1.1 0  0.05000000000040083 1.1 0  2.671196597248127e-13 1.1 0  -0.0499999999998666 1.1 0  0.2537789056365778 0.4668548593747842 0  0.2607472162022455 0.4384369792029008 0  0.2708526253331135 0.411529791782454 0  0.2835508765515661 0.3862959670541714 0  0.2982849674265999 0.3629294878440651 0  0.3146597732913444 0.3415580409810987 0  0.3321169007155252 0.322510558470802 0  0.3522623060074572 0.3042594266705343 0  0.3745144092638099 0.2877992370101012 0  0.3984744498252788 0.2736812397936719 0  0.4240459467444516 0.2622285366398048 0  0.4508313745682584 0.2538708368914869 0  0.4788284227331697 0.2490084544257525 0  0.5078298894440547 0.2481958126466127 0  0.536143552404405 0.2514969875334944 0  0.5636478590136398 0.2585396818766061 0  0.5899402852535982 0.2688921461258688 0  0.6147176175764518 0.2819627033623699 0  0.6380573635373342 0.2975567014575288 0  0.659747743223662 0.3153844868378964 0  0.6794564747172934 0.3350021165730884 0  0.6974710352791411 0.3566630366013207 0  0.7131721139809543 0.3797396988127469 0  0.7264719102559077 0.4042595455226506 0  0.7370453689400095 0.4301283821194139 0  0.7445862081117993 0.457188331362161 0  0.7485822908253754 0.4852109116144803 0  0.74864488846799 0.5138563810200792 0  0.7448236274992245 0.5416237994947561 0  0.7372835940313925 0.569133849301248 0  0.7267208067608837 0.5951682573950029 0  0.7133733497685751 0.6198602563638287 0  0.6975051766965892 0.6431699659592452 0  0.6794866456124112 0.6647731703830235 0  0.6596111374086528 0.6844730467911037 0  0.6377484838765252 0.7023251366074013 0  0.6143899050956296 0.7178120978320975 0  0.589232376410414 0.7309633382515414 0  0.5629052869207963 0.7412062745190554 0  0.5349821748180756 0.7482440889509628 0  0.5063047442696481 0.7514566494415694 0  0.477285771545595 0.7505225871048102 0  0.4490358438044093 0.745529161892475 0  0.4220446580883373 0.7370712635789692 0  0.3962260565787514 0.7255571749373354 0  0.3718302574927898 0.711336416260265 0  0.3488624232748726 0.6945864340715209 0  0.3277211131497531 0.6756878475959454 0  0.3086636740795891 0.654937455032962 0  0.2914916502926387 0.6319456019501209 0  0.2769404801358816 0.6075016699928488 0  0.2651648209989344 0.5814704827625171 0  0.2565449959323657 0.5541969833237762 0  0.2515330735774184 0.5257679160824975 0  0.5016392811759638 0.6292050971089915 0  0.509372260450013 0.3627435735444581 0  0.6448996713802246 0.4978333464406388 0  0.3496938690420497 0.4977747627336728 0  0.399026570450102 0.4085266485138051 0  0.3938967532558156 0.588317870417765 0  0.590262497818863 0.3929237866671759 0  0.5892554896314969 0.606304576518384 0  0.4326230392087481 0.6546359492348659 0  0.4849940281024416 0.6910325636372266 0  0.5454914764342396 0.688017639934435 0  0.4301195904135511 0.3406431203740918 0  0.4871983793688328 0.3061159215054456 0  0.548640665748226 0.311159050263993 0  0.6570302651644311 0.5908351154018399 0  0.6575086358649287 0.4089846650068903 0  0.3369569784305856 0.5781509287697361 0  0.3399390460862932 0.4173799511546659 0  0.3784017413372224 0.6426819896696837 0  0.3816517570828395 0.3529300989826074 0  0.5946784359965825 0.658073922562843 0  0.5955558948057823 0.3414475087552489 0  0.6957905292630985 0.4997394592160456 0  0.694569934636402 0.5541740952514805 0  0.6946391303022218 0.4459800477601516 0  0.3039700969417178 0.4508193687622005 0  0.2928817920211628 0.5030589419804441 0  0.6378198739472402 0.3649840101996096 0  0.6377766054248722 0.6356304073459765 0  0.2997064624999487 0.553837355610882 0  0.4239690762311844 0.5123102917682059 0  0.4409482391264144 0.6981239675880974 0  0.4430373586221505 0.3007572137957202 0  0.346606083350705 0.3750902533748804 0  0.3428573069668909 0.621413495388646 0  0.5631224568689864 0.5239035290776578 0  0.5214303611144487 0.4396360646049394 0  0.520190550775714 0.2830277219621863 0  0.51816472631389 0.7161027164057773 0  0.4677179109113839 0.575037232626 0  0.4696191856712654 0.4445735143693001 0  0.3959692414676443 0.6739184386780747 0  0.3988298655878386 0.3251384243318186 0  0.6162392573207163 0.449191265259973 0  0.6146003670384587 0.5477660103200261 0  0.5810088817702301 0.3108593300660258 0  0.5802717562513975 0.6884804570291599 0  0.3825323015236311 0.5356877944199161 0  0.3769342748251933 0.456162261289355 0  0.4422062527146793 0.407164244837362 0  0.7134569849796771 0.5290685976326783 0  0.7143457011343805 0.4686971738099041 0  0.550586033543797 0.6242604699105112 0  0.5536339388002772 0.3739954872067375 0  0.6951318804988377 0.5873250460026804 0  0.694719542484924 0.4116922249924558 0  0.4194658047844867 0.6217237756407997 0  0.3045643983595781 0.4152546897134128 0  0.4729381524007704 0.7246853836333683 0  0.4743472359838606 0.2746133557099168 0  0.4589246895562697 0.6778570892284196 0  0.4577690899253957 0.3214838041433461 0  0.6668234218200232 0.3759873803724191 0  0.6670194949768019 0.623161894614064 0  0.6278557450765538 0.3335062068498217 0  0.6278606943198662 0.6657777002644557 0  0.2809210283146687 0.4684656113469374 0  0.3047043547100962 0.5844418008242538 0  0.7249089202393056 0.4993373927355315 0  0.5168357838138972 0.5635631460359518 0  0.2802650651339095 0.5327045348630775 0  0.3214035757238451 0.3886158659946766 0  0.4552635845786613 0.6194916560098126 0  0.5653321228277557 0.2861791174000253 0  0.5638099931161743 0.7133198100295132 0  0.3412139111837962 0.5394764476119752 0  0.3154269501757977 0.5242349646554276 0  0.5660577747077374 0.33956
[...]
<PointData  Scalars="state"> 
<DataArray  type="Float64"  Name="state"  format="ascii">0.0000000000000000e+00  0.0000000000000000e+00  0.0000000000000000e+00  0.0000000000000000e+00  0.0000000000000000e+00  0.0000000000000000e+00  0.0000000000000000e+00  0.0000000000000000e+00  -2.8559677983836018e-02  -5.2643533975721413e-03  0.0000000000000000e+00  0.0000000000000000e+00  0.0000000000000000e+00  0.0000000000000000e+00  0.0000000000000000e+00  0.0000000000000000e+00  0.0000000000000000e+00  0.0000000000000000e+00  0.0000000000000000e+00  0.0000000000000000e+00  0.0000000000000000e+00  0.0000000000000000e+00  0.0000000000000000e+00  0.0000000000000000e+00  0.0000000000000000e+00  0.0000000000000000e+00  0.0000000000000000e+00  0.0000000000000000e+00  0.0000000000000000e+00  0.0000000000000000e+00  0.0000000000000000e+00  0.0000000000000000e+00  0.0000000000000000e+00  0.0000000000000000e+00  0.0000000000000000e+00  0.0000000000000000e+00  0.0000000000000000e+00  0.0000000000000000e+00  0.0000000000000000e+00  0.0000000000000000e+00  0.0000000000000000e+00  0.0000000000000000e+00  0.0000000000000000e+00  0.0000000000000000e+00  0.0000000000000000e+00  0.0000000000000000e+00  0.0000000000000000e+00  0.0000000000000000e+00  0.0000000000000000e+00  0.0000000000000000e+00  0.0000000000000000e+00  0.0000000000000000e+00  0.0000000000000000e+00  0.0000000000000000e+00  0.0000000000000000e+00  0.0000000000000000e+00  0.0000000000000000e+00  0.0000000000000000e+00  0.0000000000000000e+00  0.0000000000000000e+00  0.0000000000000000e+00  0.0000000000000000e+00  0.0000000000000000e+00  0.0000000000000000e+00  0.0000000000000000e+00  0.0000000000000000e+00  0.0000000000000000e+00  0.0000000000000000e+00  0.0000000000000000e+00  0.0000000000000000e+00  0.0000000000000000e+00  0.0000000000000000e+00  0.0000000000000000e+00  0.0000000000000000e+00  0.0000000000000000e+00  0.0000000000000000e+00  0.0000000000000000e+00  0.0000000000000000e+00  0.0000000000000000e+00  0.0000000000000000e+00  0.0000000000000000e+00  0.0000000000000000e+00  0.0000000000000000e+00  0.0000000000000000e+00  0.0000000000000000e+00  0.0000000000000000e+00  0.0000000000000000e+00  0.0000000000000000e+00  0.0000000000000000e+00  0.0000000000000000e+00  0.0000000000000000e+00  0.0000000000000000e+00  0.0000000000000000e+00  0.0000000000000000e+00  0.0000000000000000e+00  0.0000000000000000e+00  0.0000000000000000e+00  0.0000000000000000e+00  0.0000000000000000e+00  0.0000000000000000e+00  0.0000000000000000e+00  0.0000000000000000e+00  0.0000000000000000e+00  0.0000000000000000e+00  0.0000000000000000e+00  0.0000000000000000e+00  0.0000000000000000e+00  0.0000000000000000e+00  0.0000000000000000e+00  0.0000000000000000e+00  0.0000000000000000e+00  0.0000000000000000e+00  0.0000000000000000e+00  0.0000000000000000e+00  0.0000000000000000e+00  0.0000000000000000e+00  0.0000000000000000e+00  0.0000000000000000e+00  0.0000000000000000e+00  0.0000000000000000e+00  0.0000000000000000e+00  0.0000000000000000e+00  0.0000000000000000e+00  0.0000000000000000e+00  0.0000000000000000e+00  0.0000000000000000e+00  0.0000000000000000e+00  0.0000000000000000e+00  0.0000000000000000e+00  0.0000000000000000e+00  0.0000000000000000e+00  0.0000000000000000e+00  0.0000000000000000e+00  0.0000000000000000e+00  0.0000000000000000e+00  0.0000000000000000e+00  0.0000000000000000e+00  0.0000000000000000e+00  0.0000000000000000e+00  0.0000000000000000e+00  0.0000000000000000e+00  0.0000000000000000e+00  0.0000000000000000e+00  0.0000000000000000e+00  0.0000000000000000e+00  0.0000000000000000e+00  0.0000000000000000e+00  0.0000000000000000e+00  0.0000000000000000e+00  0.0000000000000000e+00  0.0000000000000000e+00  0.0000000000000000e+00  0.0000000000000000e+00  0.0000000000000000e+00  0.0000000000000000e+00  0.0000000000000000e+00  0.0000000000000000e+00  0.0000000000000000e+00  0.0000000000000000e+00  0.0000000000000000e+00  0.0000000000000000e+00  0.0000000000000000e+00  0.0000000000000000e+00  0.0000000000000000e+00  0.0000000000000000e+00  0.0000000000000000e+00  0.0000000000000000e+00  0.0000000000000000e+00  0.0000000000000000e+00  0.0000000000000000e+00  0.0000000000000000e+00  0.0000000000000000e+00  0.0000000000000000e+00  0.0000000000000000e+00  0.0000000000000000e+00  0.0000000000000000e+00  0.0000000000000000e+00  0.0000000000000000e+00  -2.8445774904877354e-02  -2.8536319049745910e-02  -2.8576702334332460e-02  -2.8661515779577831e-02  -2.8775550592755623e-02  -2.8994503437444044e-02  -2.8986231535268029e-02  -2.9034455803028464e-02  -2.9003551788644288e-02  -2.8822157502656178e-02  -2.8538759201402232e-02  -2.8470296790832031e-02  -2.8440687723829433e-02  -2.8269596011574940e-02  -2.8330716595470783e-02  -2.8491927949985542e-02  -2.8554949589121668e-02  -2.8845725306210684e-02  -2.8873646424272321e-02  -2.8922881898974392e-02  -2.8908652255070503e-02  -2.8712960758211208e-02  -2.8805331013983002e-02  -2.8579152882881046e-02  -2.8242917518808950e-02  -2.8261190891231920e-02  -2.8148103598357389e-02  -2.8143440231375622e-02  -2.8260178525309040e-02  -2.8245261755464646e-02  -2.8583265714817715e-02  -2.8806480198383187e-02  -2.8715941029785773e-02  -2.8904880657043747e-02  -2.8904255340881008e-02  -2.8851527129998993e-02  -2.8816462674484563e-02  -2.8504430299855860e-02  -2.8423818245784105e-02  -2.8245125394296054e-02  -2.8171546764464640e-02  -2.8325276137172794e-02  -2.8338464804466831e-02  -2.8406932393411029e-02  -2.8700414747588492e-02  -2.8906914111857730e-02  -2.8978838359618911e-02  -2.8983442842900709e-02  -2.9054552789049143e-02  -2.8970092449276966e-02  -2.8707480775686856e-02  -2.8649351387050794e-02  -2.8606020512932404e-02  -2.8481249025197049e-02  -1.1901466247997192e-02  -1.2747675436119838e-02  -1.3576970140070446e-02  -1.3979282216355832e-02  -1.2859997812574117e-02  -1.2864258652584511e-02  -1.3250071808277239e-02  -1.3166962494138072e-02  -1.6004011870322177e-02  -1.8533060600665015e-02  -1.8875777088680937e-02  -1.6859775578931056e-02  -1.8981972900418798e-02  -1.9075653041587294e-02  -1.7563411012813886e-02  -1.7601479205052527e-02  -1.7416497980248781e-02  -1.7478652108337552e-02  -1.8228171428021581e-02  -1.8645441530459779e-02  -1.7875271407247498e-02  -1.7940503366897058e-02  -1.8996551179494212e-02  -1.9965264755351025e-02  -1.9970619727830551e-02  -1.9981315120588213e-02  -2.0567653644809811e-02  -1.9199080911987344e-02  -1.9308001258967002e-02  -2.0733693023494242e-02  -7.8555231109213326e-03  -2.0445448611050632e-02  -2.0653774773544471e-02  -1.9979455827885101e-02  -1.9788146947058504e-02  -7.2741395527272327e-03  -7.1922211055758497e-03  -2.1986189542474693e-02  -2.1793358419474045e-02  -8.0579785071075646e-03  -7.1381316441033139e-03  -2.0314180709217689e-02  -2.0380479391059206e-02  -1.1907609274588012e-02  -1.1622673081726147e-02  -2.0693639983844499e-02  -2.0594572932424979e-02  -1.1260778310447301e-02  -1.2174869648436146e-02  -1.0240696719293193e-02  -2.1801252496823378e-02  -2.2022115982538816e-02  -1.2540560629982798e-02  -1.2751730308755659e-02  -2.1862776646817034e-02  -2.1848628936606329e-02  -1.3663514902929367e-02  -2.1787842511068797e-02  -2.2938297138826249e-02  -2.3111916244294144e-02  -1.7491918619232431e-02  -1.7824588963109587e-02  -2.1331112777976668e-02  -2.1309220064533813e-02  -2.1391108143420212e-02  -2.1347647477031745e-02  -2.2581248296491739e-02  -2.1663369262049644e-02  -2.3072436144214111e-02  -6.9262958468691641e-03  -2.2727774190142595e-02  -2.1744502063109631e-02  -1.1790015584070673e-02  -2.3041811519591771e-02  -2.2907004853453889e-02  -1.5508164662789609e-02  -1.7915872704206765e-02  -1.6623498917985872e-02  -1.6506529801608223e-02  -1.5751599290060876e-02  -1.5602171996417053e-02  -1.5923315261940872e-02  -1.5523307641137265e-02  -1.5568789249381544e-02  -1.5666477987874673e-02  -1.5861551260831868e-02  -1.5202312669502499e-02  -1.6738863794339170e-02  -2.1619576487841893e-02  -2.2908367346048404e-02  -2.2763762144596258e-02  -1.5466258761951415e-02  -1.6358953471445826e-02  -2.1928305311548466e-02  -2.1712753526125554e-02  -7.5410048190410672e-03  -1.5856426501229124e-02  -1.5930958228288491e-02  -1.4200632891061420e-02  -2.3365352945191681e-02  -2.3362693919399550e-02  -1.7508765073621056e-02  -2.2265716974472109e-02  -2.2633541157886274e-02  -2.2965664482299378e-02  -2.2923756264055847e-02  -1.6856935432855265e-02  -1.8351671269915531e-02  -1.8544852228585363e-02  -2.4433806625211659e-02  -2.3627717170334205e-02  -2.3864062806768407e-02  -2.3751365678015317e-02  -2.3421591576554053e-02  -2.3604817655120298e-02  -2.3197809888758209e-02  -2.3176970728251641e-02  -1.7258743205308884e-02  -1.8024820209064055e-02  -1.8035617549909590e-02  -1.0567838489591719e-02  -1.7294954797880100e-02  -1.7074758557533636e-02  -1.8225758641870277e-02  -8.4851629987399042e-03  -1.6262323836560347e-02  -1.6206152296502269e-02  -1.3582035922544667e-02  -1.6205665829426823e-02  -1.6386168186257658e-02  -2.3829365859979804e-02  -2.3915164494085279e-02  -2.4340018172688979e-02  -2.3548159177365569e-02  -2.3546137341831832e-02  -1.8171368556204420e-02  -8.9917015576075864e-03  -1.9064478800717884e-02  -1.8473652775502669e-02  -2.0342391236223795e-02  -2.0550858330036136e-02  -2.3724489046393012e-02  -1.5541954869040520e-02  -2.4269022943804067e-02  -2.4094077582540008e-02  -1.9135291205340441e-02  -1.9359184433665026e-02  -9.5903154105697573e-03  -1.0388899620390924e-02  -2.4708910145842804e-02  -2.4649134096336033e-02  -1.5861508930442487e-02  -9.5169988040045232e-03  -8.7955337986190159e-03  -2.0853529548619475e-02  -2.1119015948269645e-02  -1.6814875426473672e-02  -2.4690118043703007e-02  -1.9898932177257592e-02  -1.5152028569921211e-02  -1.5046573632413851e-02  -2.3579268144431141e-02  -6.4005568222710073e-03  -2.3991349874676673e-02  -2.3995363634740245e-02  -1.8328847401078988e-02  -1.8328170356023188e-02  -2.1104140175403140e-02  -2.0953693184679049e-02  -9.5722361621240863e-03  -1.8144056724069997e-02  -1.7975464857251149e-02  -1.4434354638062773e-02  -2.4435919366291883e-02  -2.4540732776695103e-02  -2.4189290751944256e-02  -2.4026592016402750e-02  -2.4622305774636172e-02  -2.4575562668693481e-02  -1.4551110931357799e-02  -1.3265898656625285e-02  -1.8487207668938542e-02  -1.8470119222022647e-02  -2.4200262288032730e-02  -9.6441104844277731e-03  -1.4396081081866744e-02  -1.2995349402916604e-02  -1.8179304326441999e-02  -1.4500087253317809e-02  -1.4587520903441472e-02  -6.3948237502775207e-03  -1.7520034648949769e-02  -1.7711273079564067e-02  -2.3866275064478346e-02  -2.3860286183284330e-02  -2.4280955503746090e-02  -5.0915120390434207e-02  -5.1121620311369548e-02  -5.1163161451830044e-02  -5.1489422181461915e-02  -4.4909221376410700e-02  -4.4327456039796938e-02  -4.6011363798939879e-02  -4.5966840583231347e-02  -4.6374532376261685e-02  -4.6536318950208440e-02  -4.7276906194808600e-02  -4.7248741937117762e-02  -3.9822739279846454e-02  -3.9781258394410948e-02  -3.9508960770157461e-02  -3.9916416107067136e-02  -4.9800371072964186e-02  -4.9399146758905929e-02  -4.9376361636496613e-02  -4.9739597772079223e-02  -4.7018497614731057e-02  -4.6570942278296987e-02  -4.6715447971540786e-02  -4.6757525548173633e-02  -4.2602929980599127e-02  -4.2202692534134244e-02  -4.1233589645658882e-02  -4.1968109413269325e-02  -4.1425185923843783e-02  -4.2392878623019339e-02  -4.3199291277034070e-02  -4.2970830431697402e-02  -3.8744782102542702e-02  -3.1453227239611900e-02  -3.8892115274710995e-02  -3.1628930539762873e-02  -4.2661803112461053e-02  -4.2770616571611964e-02  -3.0616895538269361e-02  -3.0422748307950161e-02  -4.2171732239188429e-02  -4.2615235150079700e-02  -3.7723596547182707e-02  -3.7406662760801762e-02  -4.0782314229839314e-02  -3.8036909419474144e-02  -3.8312493556095013e-02  -4.0036470610235277e-02  -4.0005321865579910e-02  -3.7960931390908670e-02  -3.8359584351213151e-02  -3.7495928874045195e-02  -3.7364261504736644e-02  -4.0138518310389476e-02  -3.1859818948135325e-02  -3.3625937024990726e-02  -3.1237715487562202e-02  -3.1222070511069618e-02  -3.0476948904915004e-02  -2.9876089746498278e-02  -5.0393904240176611e-02  -4.9924201286573190e-02  -5.1425157702715010e-02  -5.1511427331165066e-02  -4.1405472447472565e-02  -4.1000573245852705e-02  -4.0895159256099781e-02  -4.0492316599900637e-02  -5.0379918353442105e-02  -5.0483402821682760e-02  -5.2406021307710562e-02  -5.2230597286970833e-02  -4.2642422193588034e-02  -4.2807003864035770e-02  -3.0779339294586313e-02  -3.1256804230003730e-02  -2.9769708327401383e-02  -2.9354736655834095e-02  -4.0196618290682350e-02  -4.0072230810285665e-02  -2.9144079119485390e-02  -2.9376170349082877e-02  -3.9673393322211779e-02  -4.0106558074800333e-02  -3.7291866494898913e-02  -4.2461888724185944e-02  -3.7074478425529030e-02  -4.2424676513902464e-02  -3.7245822198163712e-02  -3.7172667843877211e-02  -3.6861728754314579e-02  -3.7208876692333574e-02  -3.7426827482870663e-02  -3.7201619805028646e-02  -3.7871531044815041e-02  -3.8253016945426009e-02  -4.1767965725400875e-02  -4.1446381487858813e-02  -4.2621358104688249e-02  -4.2353542681230504e-02  -3.6695451782403653e-02  -3.6972532063089314e-02  -4.2726584943618119e-02  -4.2701335018303255e-02  -3.7203445935982946e-02  -3.6849435939036002e-02  -4.7980096678435544e-02  -4.7622191081316004e-02  -3.7492424648258624e-02  -3.7556219664326769e-02  -3.6071201809620722e-02  -3.6274476690033135e-02  -2.5631665081802757e-02  -2.5835613855510597e-02  -4.9312149910551564e-02  -4.8797564972600939e-02  -3.7181387969064769e-02  -3.7203866330849274e-02  -2.6234596912590082e-02  -2.6345279134465011e-02  -2.5430102433146601e-02  -2.5528981800865960e-02  -2.4389598062351858e-02  -4.4690956370230489e-02  -4.4552616406686181e-02  -4.2873988601538952e-02  -4.2646622169408788e-02  -4.3608224483584715e-02  -4.3797789223063897e-02  -4.1794719576337673e-02  -4.2070471192505871e-02  -5.1463103827148880e-02  -5.1182542485451038e-02  -5.1839981700773370e-02  -5.1650759676728324e-02  -3.6436544806239028e-02  -3.6160981781024129e-02  -4.1557046642113633e-02  -4.2193948131880474e-02  -3.6419949575492827e-02  -3.6814312688879053e-02  -2.5139714145201650e-02  -2.5039087240099921e-02  -2.5228154216417692e-02  -1.3906977168689313e-02  -1.3963930899408150e-02  -1.3931511134747228e-02  -1.3864298276076705e-02  -2.3254039960044649e-02  -2.3437744070679400e-02  -4.6988214172688926e-02  -4.6771596760768232e-02  -4.7142522519511537e-02  -4.7215939352880244e-02  -4.5986793519505666e-02  -4.5874449312224043e-02  -5.2634121978460624e-02  -5.3017832396280322e-02  -4.5134672698124746e-02  -4.4850406110569660e-02  -5.2910320375047407e-02  -5.2936620190276833e-02  -3.5790956039349550e-02  -3.5856603171386968e-02  -2.8446097336591786e-02  -2.8505303210805355e-02  -3.5974857977156410e-02  -3.5654133390835598e-02  -3.4610083098425677e-02  -3.9562187182003786e-02  -3.8850969718567649e-02  -2.2808173788183714e-02  -2.2883310844937974e-02  -4.7712991992444873e-02  -4.7972466775681087e-02  -4.3365797432039374e-02  -4.3581106621820014e-02  -4.6273570915156895e-02  -4.5713852330259479e-02  -4.3194385282201396e-02  -4.3667903074851216e-02  -3.5447720220171328e-02  -3.5163859206476251e-02  -4.1174478152092582e-02  -4.1153743064835005e-02  -4.1786101530536850e-02  -4.2491145334427688e-02  -2.7585474817735801e-02  -2.4082241653337170e-02  -2.4325452307296755e-02  -4.8476247225465938e-02  -4.8689830160011646e-02  -2.3938066011639881e-02  -2.3638002082613768e-02  -2.2783798517394257e-02  -2.2541110371108501e-02  -3.6201638029838779e-02  -4.6919073933628916e-02  -4.6524182254272524e-02  -2.2604887531428267e-02  -2.2400192114093401e-02  -3.5816306555549085e-02  -4.3394782875822983e-02  -3.5769915678283512e-02  -4.3376723028679794e-02  -2.2451345812622470e-02  -2.2628810141599395e-02  -4.0982463653280482e-02  -4.0867550855791114e-02  -4.1100687999091869e-02  -4.1143695948244845e-02  -3.4783616923953195e-02  -3.4705221658366078e-02  -4.7907509440494420e-02  -4.7670001391445907e-02  -3.5240904335360271e-02  -4.2758398047749883e-02  -3.4959688898466519e-02  -4.2235989356268946e-02  -3.8481777277113847e-02  -3.9006128752169321e-02  -1.9058268952892914e-02  -2.0436619090924545e-02  -2.3777764677384246e-02  -2.3823281024135660e-02  -2.1780038355041605e-02  -2.1920464512322674e-02  -4.2435047620604051e-02  -4.2417534924425439e-02  -4.2020958237011061e-02  -4.2523853917676761e-02  -4.2079608204850703e-02  -4.2064977989292242e-02  -2.2401329786398666e-02  -2.2120826226972427e-02  -4.5541009103287719e-02  -4.5567822675627631e-02  -5.0788121136764390e-02  -5.0723415372431663e-02  -4.6687497284943855e-02  -4.6876880613557659e-02  -3.4883888344898306e-02  -3.4557875824064825e-02  -4.8847680331287308e-02  -4.8382644864203656e-02  -5.1455639370067106e-02  -5.1546738834118935e-02  -3.5443086924654255e-02  -3.5276156632182136e-02  -3.4265492601129509e-02  -3.4009324578738086e-02  -3.9548940987501911e-02  -3.9374047218454618e-02  -1.6067523765671891e-02  -1.6014887058997417e-02  -3.4238397078880621e-02  -3.4209997860089179e-02  -4.6194552215000496e-02  -4.4856760577863003e-02  -4.6597218779791082e-02  -4.5150938777546758e-02  -5.0900077910215544e-02  -5.0770924718835590e-02  -5.2951919998660647e-02  -5.2879107810907960e-02  -3.3137102970077929e-02  -3.2929525536895633e-02  -3.7615927747346997e-02  -3.7111300466979504e-02  -4.9560062459849161e-02  -4.9372675384442531e-02  -5.3160674404870073e-02  -5.3436869186991053e-02  -4.4428371591479839e-02  -4.5012309841084390e-02  -4.2510014153542462e-02  -4.1966207559803979e-02  -3.3359361820667378e-02  -1.9443871780895742e-02  -1.9471537503536425e-02  -3.4986253213510218e-02  -2.0121302346599576e-02  -2.0282792366618087e-02  -2.0358307686093625e-02  -1.7036002717133146e-02  -1.5113652375638154e-02  -1.5200451386473893e-02  -3.3765029118139153e-02  -3.4007709561075281e-02  -1.5484495479379547e-02  -1.5576212964757558e-02  -1.9787563884841059e-02  -1.9073942676293788e-02  -1.9260549448474613e-02  -3.3371772176943156e-02  -3.3132015273679101e-02  -1.6311294034054329e-02  -1.6367608100926259e-02  -4.1104938881682443e-02  -4.0743781795521197e-02  -4.3292928106796309e-02  -4.3004340938556110e-02  -5.1177371858454980e-02  -5.1620118070823201e-02  -4.0964515346215757e-02  -4.1104274832026631e-02  -4.2336142797436555e-02  -4.9079654678468206e-02  -4.9140091895988267e-02  -4.6009965692815409e-02  -4.5977075555748370e-02  -4.1989578021594927e-02  -3.2661668063972180e-02  -3.2480116771501366e-02  -4.8157561145525517e-02  -4.7624607740856244e-02  -3.4435804453076577e-02  -3.4203455272298601e-02  -1.6209990055337659e-02  -1.6267278777079654e-02  -3.3686613655882491e-02  -3.3506666930360703e-02  -1.6933287841072876e-02  -1.6738893854877493e-02  -3.3409462825988168e-02  -3.3235771683258301e-02  -4.2414752321203827e-02  -1.8697565206457312e-02  -3.8404906926300608e-02  -3.8122487771407067e-02  -3.5756491458708795e-02  -3.5852825081608405e-02  -3.8449376165281234e-02  -3.8487264644525537e-02  -3.8876458467022416e-02  -4.2376241960389478e-02  -3.9249058007111669e-02  -4.2835678945699306e-02  -5.0096012655256317e-02  -4.9996776230764511e-02  -4.6024898599177813e-02  -4.6319709286627202e-02  -4.2824669223231991e-02  -4.2734021284658870e-02  -3.9294713682826860e-02  -3.9025321785885927e-02  -4.6567619819460657e-02  -4.6055394664568476e-02  -4.8989366332942812e-02  -4.8855482300706542e-02  -4.2345041273825892e-02  -4.2827187545847911e-02  -3.4271688844284776e-02  -3.4533014143655338e-02  -3.6350846007358321e-02  -3.6076714133741132e-02  -3.6570221977021158e-02  -3.6727091829841976e-02  -4.6007929122724493e-02  -4.5740375570819898e-02  -3.2970856762171138e-02  -3.2857533841606973e-02  -3.3548678227122923e-02  -3.3328701175538149e-02  -4.2552468376716855e-02  -4.2891711235083348e-02  -4.2263634065900196e-02  -4.2243344318753526e-02  -1.8280688743944982e-02  -1.8155763008538339e-02  -3.6708847939825470e-02  -3.7069513994287227e-02  -3.7931015094768754e-02  -3.7672708921107669e-02  -4.0841977299129167e-02  -4.06408138941