<?xml version="1.0"?>
<VTKFile type="UnstructuredGrid"  version="0.1"  >
<UnstructuredGrid>
<Piece  NumberOfPoints="1286" NumberOfCells="2474">
<Points>
<DataArray  type="Float64"  NumberOfComponents="3"  format="ascii">0 0 0  0 1 0  1 1 0  1 0 0  1.1 -0.1 0  -0.1 -0.1 0  1.1 1.1 0  -0.1 1.1 0  0.2502761936670512 0.4973297403104772 0  0.5025581754120519 0.4994008569853483 0  0 0.9499999999997918 0  0 0.8999999999995836 0  0 0.8499999999996529 0  0 0.7999999999999998 0  0 0.7500000000003466 0  0 0.7000000000006934 0  0 0.6500000000010401 0  0 0.6000000000013869 0  0 0.5500000000017335 0  0 0.5000000000020587 0  0 0.4500000000018723 0  0 0.4000000000016644 0  0 0.3500000000014564 0  0 0.3000000000012483 0  0 0.2500000000010403 0  0 0.2000000000008322 0  0 0.1500000000006241 0  0 0.100000000000416 0  0 0.05000000000020799 0  0.04999999999989965 0 0  0.09999999999981467 0 0  0.1499999999997036 0 0  0.1999999999995579 0 0  0.2499999999994121 0 0  0.2999999999992664 0 0  0.3499999999991206 0 0  0.3999999999989749 0 0  0.4499999999988292 0 0  0.4999999999986943 0 0  0.5499999999988151 0 0  0.5999999999989468 0 0  0.6499999999990784 0 0  0.69999999999921 0 0  0.7499999999993417 0 0  0.7999999999994734 0 0  0.8499999999996051 0 0  0.8999999999997368 0 0  0.9499999999998684 0 0  1 0.04999999999989965 0  1 0.09999999999981467 0  1 0.1499999999997036 0  1 0.1999999999995579 0  1 0.2499999999994121 0  1 0.2999999999992664 0  1 0.3499999999991206 0  1 0.3999999999989749 0  1 0.4499999999988292 0  1 0.4999999999986943 0  1 0.5499999999988151 0  1 0.5999999999989468 0  1 0.6499999999990784 0  1 0.69999999999921 0  1 0.7499999999993417 0  1 0.7999999999994734 0  1 0.8499999999996051 0  1 0.8999999999997368 0  1 0.9499999999998684 0  0.9499999999997918 1 0  0.8999999999995836 1 0  0.8499999999996529 1 0  0.7999999999999998 1 0  0.7500000000003466 1 0  0.7000000000006934 1 0  0.6500000000010401 1 0  0.6000000000013869 1 0  0.5500000000017335 1 0  0.5000000000020587 1 0  0.4500000000018723 1 0  0.4000000000016644 1 0  0.3500000000014564 1 0  0.3000000000012483 1 0  0.2500000000010403 1 0  0.2000000000008322 1 0  0.1500000000006241 1 0  0.100000000000416 1 0  0.05000000000020799 1 0  -0.1 1.05000000000004 0  -0.1 1.000000000000079 0  -0.1 0.9500000000001624 0  -0.1 0.9000000000003032 0  -0.1 0.850000000000444 0  -0.1 0.8000000000005848 0  -0.1 0.7500000000007256 0  -0.1 0.7000000000008665 0  -0.1 0.6500000000010508 0  -0.1 0.6000000000012352 0  -0.1 0.5500000000014196 0  -0.1 0.500000000001539 0  -0.1 0.4500000000014195 0  -0.1 0.4000000000013 0  -0.1 0.3500000000011588 0  -0.1 0.3000000000010178 0  -0.1 0.2500000000008986 0  -0.1 0.2000000000007579 0  -0.1 0.1500000000006174 0  -0.1 0.1000000000005272 0  -0.1 0.05000000000040083 0  -0.1 2.671196597248127e-13 0  -0.1 -0.0499999999998666 0  -0.0500000000000906 -0.1 0  -1.730560139634463e-13 -0.1 0  0.04999999999975802 -0.1 0  0.09999999999961506 -0.1 0  0.1499999999994613 -0.1 0  0.199999999999302 -0.1 0  0.2499999999991446 -0.1 0  0.2999999999990088 -0.1 0  0.3499999999988296 -0.1 0  0.3999999999986936 -0.1 0  0.4499999999985143 -0.1 0  0.4999999999984002 -0.1 0  0.5499999999985247 -0.1 0  0.5999999999986493 -0.1 0  0.6499999999987955 -0.1 0  0.6999999999989417 -0.1 0  0.7499999999990659 -0.1 0  0.7999999999992116 -0.1 0  0.8499999999993573 -0.1 0  0.8999999999994526 -0.1 0  0.949999999999584 -0.1 0  0.9999999999997226 -0.1 0  1.049999999999861 -0.1 0  1.1 -0.0500000000000906 0  1.1 -1.730560139634463e-13 0  1.1 0.04999999999975802 0  1.1 0.09999999999961506 0  1.1 0.1499999999994613 0  1.1 0.199999999999302 0  1.1 0.2499999999991446 0  1.1 0.2999999999990088 0  1.1 0.3499999999988296 0  1.1 0.3999999999986936 0  1.1 0.4499999999985143 0  1.1 0.4999999999984002 0  1.1 0.5499999999985247 0  1.1 0.5999999999986493 0  1.1 0.6499999999987955 0  1.1 0.6999999999989417 0  1.1 0.7499999999990659 0  1.1 0.7999999999992116 0  1.1 0.8499999999993573 0  1.1 0.8999999999994526 0  1.1 0.949999999999584 0  1.1 0.9999999999997226 0  1.1 1.049999999999861 0  1.05000000000004 1.1 0  1.000000000000079 1.1 0  0.9500000000001624 1.1 0  0.9000000000003032 1.1 0  0.850000000000444 1.1 0  0.8000000000005848 1.1 0  0.7500000000007256 1.1 0  0.7000000000008665 1.1 0  0.6500000000010508 1.1 0  0.6000000000012352 1.1 0  0.5500000000014196 1.1 0  0.500000000001539 1.1 0  0.4500000000014195 1.1 0  0.4000000000013 1.1 0  0.3500000000011588 1.1 0  0.3000000000010178 1.1 0  0.2500000000008986 1.1 0  0.2000000000007579 1.1 0  0.1500000000006174 1.1 0  0.1000000000005272 1.1 0  0.05000000000040083 1.1 0  2.671196597248127e-13 1.1 0  -0.0499999999998666 1.1 0  0.2551014114434789 0.4680434929304094 0  0.2641494623162235 0.4403631126042064 0  0.2761072032763967 0.4143634310266899 0  0.2901045365101084 0.3899870605762022 0  0.3054863310290603 0.3671686711014801 0  0.3218068638894133 0.3458811280493573 0  0.3385125899033679 0.3262446935428164 0  0.3577847984486415 0.3071644465861978 0  0.3790467044229633 0.2894942562659519 0  0.4019647052098529 0.2737140362920045 0  0.4265773131744698 0.2602280588442596 0  0.4526974301597204 0.2495944331512095 0  0.4804719602226836 0.2427424314517762 0  0.5096747220349318 0.2413556690889262 0  0.5380936688874557 0.2459331216066385 0  0.5652572225146435 0.255027422098544 0  0.5908950424102044 0.2674148559179912 0  0.6150069749408696 0.2820564992971422 0  0.6377635747265503 0.2987803238551137 0  0.6591156357927138 0.3172359759847628 0  0.6788815576023581 0.3370340649550296 0  0.6973987390243799 0.3584716257069536 0  0.7141513730512654 0.3810360076066316 0  0.7290450054235249 0.4049103625203092 0  0.7415864754170576 0.4301928367385626 0  0.7512306523316072 0.4569272398100252 0  0.7568818633399665 0.4850829600418289 0  0.75691863215176 0.5140792280909375 0  0.7514504296467526 0.5419685241998262 0  0.7417071984340304 0.5691397490462188 0  0.7291540354629555 0.5945817553212651 0  0.7141951006079219 0.618622293435961 0  0.6972195483248993 0.6413861112523954 0  0.6786565981071274 0.6627355526331479 0  0.6587166895373747 0.6826158375332305 0  0.6371566859265497 0.701071772137843 0  0.6143337893741595 0.7176357660127152 0  0.5898524870114726 0.732405786494945 0  0.5641512975199799 0.7446322489011268 0  0.5365744443903403 0.7537889612961071 0  0.5077838952004908 0.7583630851403161 0  0.4785495198800453 0.7568584523071406 0  0.4504875091017176 0.7499040879922289 0  0.4241073787424056 0.7392260134003887 0  0.399135480090693 0.725820703426174 0  0.3755772126500481 0.710181277758688 0  0.3533025067741939 0.6925406315644445 0  0.3325538997053472 0.6732975001503588 0  0.3134870910266875 0.6526653238268877 0  0.2958675717729513 0.6301382243869262 0  0.2803645955090405 0.606401920737686 0  0.2672295693704129 0.5811645152957426 0  0.2570266582789806 0.5545291080110067 0  0.250833545805427 0.5264654635840836 0  0.5037028272258631 0.6303184357231948 0  0.5117399977101798 0.3619548365901439 0  0.6480558397421585 0.4979519060083908 0  0.3525185607951906 0.498560080501578 0  0.402697673801776 0.4095278007482091 0  0.3967877543950472 0.5884639316549158 0  0.5921491617978546 0.3929653849123176 0  0.5909270023106535 0.6065406862555059 0  0.4352410603795327 0.655489872789485 0  0.4868666299029618 0.6936532127326303 0  0.5468482230999939 0.6900721219070818 0  0.4334888106708348 0.3405474058632708 0  0.4895144166520532 0.3037272682294381 0  0.5503267668631341 0.3093252346305802 0  0.6589376565336611 0.5904108932566585 0  0.6595813534327618 0.4095592659967044 0  0.339838865239505 0.5779544718818995 0  0.3442188834589287 0.4192846704125708 0  0.3817562897076091 0.6422660106199449 0  0.3861049933705903 0.3544454981339742 0  0.5956190594787939 0.6583852058107141 0  0.5967728471242784 0.3412986659126396 0  0.7004299528670985 0.4998129537764504 0  0.6981840540585509 0.5540148668996229 0  0.6983802838581281 0.4462609879939168 0  0.3073174658826888 0.4524622508473085 0  0.2945964036665282 0.5038847458065452 0  0.6388485265337064 0.3657046416078845 0  0.6385543080242505 0.6350170349362144 0  0.3017569932246707 0.5539448488793877 0  0.4267875403004706 0.512824999371673 0  0.443225837701703 0.7000183859244672 0  0.4458785457019026 0.2992524563489797 0  0.3517626965699252 0.3775357296119009 0  0.346415513051546 0.6205700788579481 0  0.5655243482399919 0.5241606398271829 0  0.5239464070404486 0.4397113994834045 0  0.522102621683292 0.2793616181027615 0  0.5196904495323866 0.7199080193333163 0  0.4702215750610885 0.5756181788256971 0  0.4724350092293378 0.4448570622553936 0  0.3991357973137835 0.6739067938127687 0  0.4028496856190468 0.3259099988212182 0  0.6187452187599856 0.4494168430955386 0  0.6170196754187898 0.5478229702107489 0  0.5822027467597142 0.3099175279236587 0  0.581146774405878 0.6895208788168676 0  0.385341836496738 0.5360939844861381 0  0.3802841789204114 0.4571987731334953 0  0.4453692372127561 0.4075400599635629 0  0.7186253968619326 0.5291140157803655 0  0.7195694480689897 0.468764513103152 0  0.5523202399664248 0.6250324265751749 0  0.5556246088277892 0.37358231252951 0  0.6974890953359809 0.5867711082500072 0  0.6971900611004153 0.4123501024797945 0  0.422259766862652 0.6221139359691827 0  0.3093213988558037 0.4177107881206927 0  0.4746017527990893 0.7287973886722388 0  0.4764508403816087 0.270703339031221 0  0.461134347664109 0.6796563975125565 0  0.4605718735818785 0.3202358145375144 0  0.6678732233834765 0.3770255046396326 0  0.6678868851463039 0.6222199467931269 0  0.628397022579308 0.3341734407006155 0  0.6281365848753856 0.6651771333495545 0  0.2831481011876219 0.4697949537223969 0  0.307492800644015 0.5839895139924273 0  0.7311900739072329 0.4993888321631816 0  0.5191492790035648 0.5640713477618906 0  0.2814205586087554 0.5331678292534923 0  0.3268691941299541 0.3914496755394835 0  0.4577279630817951 0.620311335335676 0  0.5667380553346617 0.2839881505180057 0  0.5648792869483868 0.7155848346074367 0  0.3438108659678255 0.5398051223621559 0  0.3176321769279006 0.5247554349333656 0  0.567668255595418
[...]
<PointData  Scalars="state"> 
<DataArray  type="Float64"  Name="state"  format="ascii">0.0000000000000000e+00  0.0000000000000000e+00  0.0000000000000000e+00  0.0000000000000000e+00  0.0000000000000000e+00  0.0000000000000000e+00  0.0000000000000000e+00  0.0000000000000000e+00  -2.9627601149311497e-02  -5.2300403556051513e-03  0.0000000000000000e+00  0.0000000000000000e+00  0.0000000000000000e+00  0.0000000000000000e+00  0.0000000000000000e+00  0.0000000000000000e+00  0.0000000000000000e+00  0.0000000000000000e+00  0.0000000000000000e+00  0.0000000000000000e+00  0.0000000000000000e+00  0.0000000000000000e+00  0.0000000000000000e+00  0.0000000000000000e+00  0.0000000000000000e+00  0.0000000000000000e+00  0.0000000000000000e+00  0.0000000000000000e+00  0.0000000000000000e+00  0.0000000000000000e+00  0.0000000000000000e+00  0.0000000000000000e+00  0.0000000000000000e+00  0.0000000000000000e+00  0.0000000000000000e+00  0.0000000000000000e+00  0.0000000000000000e+00  0.0000000000000000e+00  0.0000000000000000e+00  0.0000000000000000e+00  0.0000000000000000e+00  0.0000000000000000e+00  0.0000000000000000e+00  0.0000000000000000e+00  0.0000000000000000e+00  0.0000000000000000e+00  0.0000000000000000e+00  0.0000000000000000e+00  0.0000000000000000e+00  0.0000000000000000e+00  0.0000000000000000e+00  0.0000000000000000e+00  0.0000000000000000e+00  0.0000000000000000e+00  0.0000000000000000e+00  0.0000000000000000e+00  0.0000000000000000e+00  0.0000000000000000e+00  0.0000000000000000e+00  0.0000000000000000e+00  0.0000000000000000e+00  0.0000000000000000e+00  0.0000000000000000e+00  0.0000000000000000e+00  0.0000000000000000e+00  0.0000000000000000e+00  0.0000000000000000e+00  0.0000000000000000e+00  0.0000000000000000e+00  0.0000000000000000e+00  0.0000000000000000e+00  0.0000000000000000e+00  0.0000000000000000e+00  0.0000000000000000e+00  0.0000000000000000e+00  0.0000000000000000e+00  0.0000000000000000e+00  0.0000000000000000e+00  0.0000000000000000e+00  0.0000000000000000e+00  0.0000000000000000e+00  0.0000000000000000e+00  0.0000000000000000e+00  0.0000000000000000e+00  0.0000000000000000e+00  0.0000000000000000e+00  0.0000000000000000e+00  0.0000000000000000e+00  0.0000000000000000e+00  0.0000000000000000e+00  0.0000000000000000e+00  0.0000000000000000e+00  0.0000000000000000e+00  0.0000000000000000e+00  0.0000000000000000e+00  0.0000000000000000e+00  0.0000000000000000e+00  0.0000000000000000e+00  0.0000000000000000e+00  0.0000000000000000e+00  0.0000000000000000e+00  0.0000000000000000e+00  0.0000000000000000e+00  0.0000000000000000e+00  0.0000000000000000e+00  0.0000000000000000e+00  0.0000000000000000e+00  0.0000000000000000e+00  0.0000000000000000e+00  0.0000000000000000e+00  0.0000000000000000e+00  0.0000000000000000e+00  0.0000000000000000e+00  0.0000000000000000e+00  0.0000000000000000e+00  0.0000000000000000e+00  0.0000000000000000e+00  0.0000000000000000e+00  0.0000000000000000e+00  0.0000000000000000e+00  0.0000000000000000e+00  0.0000000000000000e+00  0.0000000000000000e+00  0.0000000000000000e+00  0.0000000000000000e+00  0.0000000000000000e+00  0.0000000000000000e+00  0.0000000000000000e+00  0.0000000000000000e+00  0.0000000000000000e+00  0.0000000000000000e+00  0.0000000000000000e+00  0.0000000000000000e+00  0.0000000000000000e+00  0.0000000000000000e+00  0.0000000000000000e+00  0.0000000000000000e+00  0.0000000000000000e+00  0.0000000000000000e+00  0.0000000000000000e+00  0.0000000000000000e+00  0.0000000000000000e+00  0.0000000000000000e+00  0.0000000000000000e+00  0.0000000000000000e+00  0.0000000000000000e+00  0.0000000000000000e+00  0.0000000000000000e+00  0.0000000000000000e+00  0.0000000000000000e+00  0.0000000000000000e+00  0.0000000000000000e+00  0.0000000000000000e+00  0.0000000000000000e+00  0.0000000000000000e+00  0.0000000000000000e+00  0.0000000000000000e+00  0.0000000000000000e+00  0.0000000000000000e+00  0.0000000000000000e+00  0.0000000000000000e+00  0.0000000000000000e+00  0.0000000000000000e+00  0.0000000000000000e+00  0.0000000000000000e+00  0.0000000000000000e+00  0.0000000000000000e+00  0.0000000000000000e+00  0.0000000000000000e+00  0.0000000000000000e+00  0.0000000000000000e+00  0.0000000000000000e+00  0.0000000000000000e+00  0.0000000000000000e+00  0.0000000000000000e+00  0.0000000000000000e+00  0.0000000000000000e+00  0.0000000000000000e+00  -2.9311363671721651e-02  -2.9097701339467107e-02  -2.8809290042004630e-02  -2.8622774978644041e-02  -2.8544069868865672e-02  -2.8688785787324551e-02  -2.8770685882605000e-02  -2.8903876144295786e-02  -2.8994532408279004e-02  -2.8960438612186348e-02  -2.8844226643395494e-02  -2.8961261931804368e-02  -2.9081776832798431e-02  -2.8910911054641705e-02  -2.8739945744569385e-02  -2.8585081616108447e-02  -2.8340181007148947e-02  -2.8364192008670741e-02  -2.8177272782400235e-02  -2.8086981437328736e-02  -2.8010499193377253e-02  -2.7845401267097832e-02  -2.8047069187971986e-02  -2.7994710894562957e-02  -2.7875362501592744e-02  -2.8122581137637399e-02  -2.8212700533428788e-02  -2.8204117048814481e-02  -2.8120804769173426e-02  -2.7858583298207059e-02  -2.7974842001418369e-02  -2.8020310614013888e-02  -2.7804856338115105e-02  -2.7947202229809988e-02  -2.8003083411888365e-02  -2.8073503200625228e-02  -2.8228206292382724e-02  -2.8180909079835521e-02  -2.8381065994399962e-02  -2.8512825057874256e-02  -2.8666814716568196e-02  -2.8795654913575903e-02  -2.8634652732688143e-02  -2.8493802364431265e-02  -2.8611826530659464e-02  -2.8690533925636311e-02  -2.8688678571982228e-02  -2.8713139334483353e-02  -2.8889459176047058e-02  -2.8985161238316990e-02  -2.8972775587493033e-02  -2.9203695457942540e-02  -2.9468993708200591e-02  -2.9573027293673532e-02  -1.1817479817355321e-02  -1.2733875446168462e-02  -1.3212743266689000e-02  -1.4351482760009273e-02  -1.3046293374846373e-02  -1.3019136145747210e-02  -1.2970662182288911e-02  -1.2841198956911926e-02  -1.6036728851803222e-02  -1.8575277861399106e-02  -1.8747313711396776e-02  -1.6996998472828824e-02  -1.9152709006213103e-02  -1.9041460556699911e-02  -1.7087360177428942e-02  -1.7156452207311219e-02  -1.7705487268787557e-02  -1.7719741810822094e-02  -1.8269241660955508e-02  -1.8741545282876960e-02  -1.7501859884338448e-02  -1.7636849391955738e-02  -1.8677990668489054e-02  -1.9564561461181212e-02  -1.9588604641735431e-02  -2.0419479807498763e-02  -2.1184335262201943e-02  -1.8719284405594470e-02  -1.8773895135957498e-02  -2.1241186264803442e-02  -8.0162450400559689e-03  -2.0506434973737598e-02  -2.0860739644263351e-02  -2.0065256456447265e-02  -1.9902263682466472e-02  -7.0499539178955559e-03  -7.1058670175980056e-03  -2.2187043534121684e-02  -2.1867396122977657e-02  -8.0746412816447444e-03  -7.1957886046687958e-03  -2.0309802711101454e-02  -2.0493936276646078e-02  -1.1572281541559724e-02  -1.1271436779761695e-02  -2.0491231498536402e-02  -2.0300711500365505e-02  -1.1514870059498753e-02  -1.2447196644539905e-02  -1.0358548435462507e-02  -2.1514537287103647e-02  -2.1743277921978471e-02  -1.2322099317397377e-02  -1.2594444988721224e-02  -2.1341526531321084e-02  -2.1350761273658991e-02  -1.3730174914822309e-02  -2.2043474774892664e-02  -2.3128082857110818e-02  -2.3453422013334786e-02  -1.7526916472673383e-02  -1.7980998029195075e-02  -2.0758373017014487e-02  -2.0696118870408616e-02  -2.0907285070078739e-02  -2.0796318841883394e-02  -2.3211729393522281e-02  -2.2026090639976008e-02  -2.2873269127491127e-02  -6.8174650035012531e-03  -2.3411669652267510e-02  -2.1850615647324531e-02  -1.1811301824443099e-02  -2.2992069406941349e-02  -2.2750807723215343e-02  -1.5881346981323596e-02  -1.8407607189152676e-02  -1.6455193351007612e-02  -1.6259757998273321e-02  -1.6104136557193512e-02  -1.5534828539899992e-02  -1.5955114383861175e-02  -1.5090667941323844e-02  -1.5175701026706026e-02  -1.5852631152123126e-02  -1.6049131780178905e-02  -1.4805812273480873e-02  -1.6370660936511981e-02  -2.1823588204636549e-02  -2.3055885745575225e-02  -2.2753446822082739e-02  -1.5084072370156878e-02  -1.5994482282636269e-02  -2.1945879048889422e-02  -2.1724128013232237e-02  -7.3225114464017839e-03  -1.5462663025382344e-02  -1.5592591910727661e-02  -1.4336359887762239e-02  -2.2931531341146869e-02  -2.2946540654761250e-02  -1.7978612882639630e-02  -2.2207650903710408e-02  -2.2661408400494656e-02  -2.2586580838264730e-02  -2.2458133211329934e-02  -1.6896461952688388e-02  -1.8329021410524057e-02  -1.8634363232109142e-02  -2.5268135752107734e-02  -2.4059459443552152e-02  -2.4237758895132473e-02  -2.3983105623937212e-02  -2.3554446521525038e-02  -2.3904454428838897e-02  -2.2568707268137572e-02  -2.2490397067143102e-02  -1.7382774858664990e-02  -1.7602207723168513e-02  -1.7594452310871443e-02  -1.0647708471593678e-02  -1.7431691393106075e-02  -1.7191229811792968e-02  -1.8554944213632445e-02  -8.6585931064980717e-03  -1.6202832941237862e-02  -1.6053922462189181e-02  -1.3678437693133544e-02  -1.6196182068840385e-02  -1.6483423775812359e-02  -2.3861105044309456e-02  -2.4075490564493592e-02  -2.4954030826160465e-02  -2.2893561059787584e-02  -2.2924324647247214e-02  -1.8571965239808943e-02  -9.0047513304202537e-03  -1.8714098056419524e-02  -1.8128958988596650e-02  -2.0434631197643122e-02  -2.0782584842178670e-02  -2.3672802518384224e-02  -1.5628045076713951e-02  -2.4496342794551068e-02  -2.4141849305236829e-02  -1.9162303622600654e-02  -1.9517170985384358e-02  -9.3293171614772762e-03  -1.0647715580848986e-02  -2.4555389986306075e-02  -2.4487296360297305e-02  -1.5998181034033273e-02  -9.2984549916367929e-03  -8.9229880552666018e-03  -2.0957118928120654e-02  -2.1357699206569887e-02  -1.6464336607984548e-02  -2.5492035511150066e-02  -2.0449178306457601e-02  -1.4898667393676891e-02  -1.4732392693077030e-02  -2.3622868266984207e-02  -6.4832973102553074e-03  -2.3664787316505644e-02  -2.3680314730148075e-02  -1.7855780493409454e-02  -1.7813926615701352e-02  -2.1179616830746907e-02  -2.0914279711885225e-02  -9.2701791201578298e-03  -1.8311554322352645e-02  -1.8177750030879881e-02  -1.4434560701280017e-02  -2.4627613039022184e-02  -2.4869285307182337e-02  -2.4232404317247228e-02  -2.3926057888129158e-02  -2.4363020165964998e-02  -2.4215199453422181e-02  -1.4172326888080967e-02  -1.2932781045561302e-02  -1.8084634971055405e-02  -1.8005450548136043e-02  -2.4675293503494178e-02  -9.5503190601595074e-03  -1.3990961682091494e-02  -1.2632928558369960e-02  -1.8607514218317123e-02  -1.4760919508023728e-02  -1.4832361880556545e-02  -6.4415554229271836e-03  -1.7140865471187022e-02  -1.7319418716676579e-02  -2.3186182470576522e-02  -2.3130353307695580e-02  -2.4345684091356422e-02  -5.0648043018238567e-02  -5.0850198728332401e-02  -5.1619179308382619e-02  -5.2243166517096658e-02  -4.5877808949947876e-02  -4.4981185768536283e-02  -4.5590489518954912e-02  -4.5586889946422016e-02  -4.5731734594156005e-02  -4.5887894712640202e-02  -4.7546367467566880e-02  -4.7293330923633102e-02  -3.9265045174517670e-02  -3.9330109372487938e-02  -3.8460962550342870e-02  -4.0613086581332981e-02  -4.9452233337888757e-02  -4.9021769125927504e-02  -5.0053898668566389e-02  -5.0786384035175880e-02  -4.6483371846984749e-02  -4.6018678650833436e-02  -4.7351726375306602e-02  -4.7101364273607199e-02  -4.3565510257379009e-02  -4.2959296124966052e-02  -4.0656422440713810e-02  -4.1500750661128641e-02  -4.0950929847497104e-02  -4.1997895228970836e-02  -4.2314842581820097e-02  -4.2080527111854581e-02  -3.8900015418450604e-02  -3.1633234421963002e-02  -3.9222832336115447e-02  -3.1934033328874956e-02  -4.2729788899488988e-02  -4.2635390514624970e-02  -3.0514572239604954e-02  -3.0319334184071820e-02  -4.2861499079774198e-02  -4.3565722465664210e-02  -3.7439174970905091e-02  -3.7118366370783973e-02  -4.1606847549447476e-02  -3.7855577360246868e-02  -3.8121842956253614e-02  -3.9769299591169364e-02  -3.9589203578354888e-02  -3.8387876267268896e-02  -3.9024683372652476e-02  -3.6976400864053578e-02  -3.6901075569700237e-02  -3.9089656571828238e-02  -3.1187694012228033e-02  -3.2945353555202894e-02  -3.1149107981527299e-02  -3.1017726260866671e-02  -3.0935984542832255e-02  -3.0468239064733286e-02  -5.1365776296147962e-02  -5.0547582176379280e-02  -5.1014699826575395e-02  -5.1097345551782837e-02  -4.0995571816580499e-02  -4.0487034048805486e-02  -4.0423022088846065e-02  -3.9928476509722408e-02  -5.0099741538834536e-02  -5.0184611479139211e-02  -5.3066716448168696e-02  -5.2594751905019999e-02  -4.3086764160514567e-02  -4.3512787862344332e-02  -3.0351475638576132e-02  -3.0830447566157257e-02  -3.0373996126227966e-02  -2.9756378830643405e-02  -4.0289624967259803e-02  -4.0407831644988443e-02  -2.8875268698862134e-02  -2.9087071027658437e-02  -3.8981666594175256e-02  -3.9427164364827405e-02  -3.6490450019146671e-02  -4.1385440441964697e-02  -3.6283717166215951e-02  -4.1333005964140551e-02  -3.7407848337182213e-02  -3.7173060097207410e-02  -3.6512214049999381e-02  -3.6956423912817817e-02  -3.7937878915599556e-02  -3.7598934914375243e-02  -3.8607688087590054e-02  -3.9114461247034910e-02  -4.2343505678085550e-02  -4.1803946299298157e-02  -4.2446548458201415e-02  -4.2182287475082875e-02  -3.7537981108273701e-02  -3.7860183575778791e-02  -4.2419527044091541e-02  -4.2553944532669391e-02  -3.6546967541847046e-02  -3.6162994193919745e-02  -4.7622360530856625e-02  -4.7220213507852458e-02  -3.7538383588070233e-02  -3.7412146827665631e-02  -3.5815117874651879e-02  -3.6143997596656152e-02  -2.5500105425066821e-02  -2.5708122958615381e-02  -5.0411059800627489e-02  -4.9523301646074165e-02  -3.7503591146957858e-02  -3.7295498326386907e-02  -2.5892012821076667e-02  -2.5946524510862622e-02  -2.5529054888891907e-02  -2.5727034659242882e-02  -2.3769760564186178e-02  -4.4205613590955206e-02  -4.3998300129122578e-02  -4.3339684721390423e-02  -4.2912293330266138e-02  -4.2723989713133508e-02  -4.2906183753739946e-02  -4.1592471177995916e-02  -4.1869901055062220e-02  -5.1068886502586126e-02  -5.0774177930201607e-02  -5.2715886398149538e-02  -5.2182574794849154e-02  -3.5745779467408499e-02  -3.5470420046593419e-02  -4.2216996832140585e-02  -4.3051237805493636e-02  -3.5987902435704260e-02  -3.6465517309498936e-02  -2.5567018356427131e-02  -2.4960699690085748e-02  -2.5147936022774452e-02  -1.3962568598583962e-02  -1.4058154453746660e-02  -1.3900042303025589e-02  -1.3832233743187074e-02  -2.3427482340311986e-02  -2.3712198711098736e-02  -4.6302481124989865e-02  -4.6076765023806192e-02  -4.7532798187834319e-02  -4.7351923947610508e-02  -4.6349767055784030e-02  -4.6017159741028643e-02  -5.3240425134059764e-02  -5.3982031290020049e-02  -4.4690861442040382e-02  -4.4406588538325048e-02  -5.2587560844730513e-02  -5.2628144360672868e-02  -3.6001589756256600e-02  -3.5849237403739867e-02  -2.8160547017966660e-02  -2.8140055810649878e-02  -3.5412111608049676e-02  -3.5022898170598560e-02  -3.3985694481475835e-02  -3.8593922755567549e-02  -3.7887612143109296e-02  -2.2843717101003882e-02  -2.3015691742014070e-02  -4.7410796807806056e-02  -4.7670741329686912e-02  -4.3093480393440679e-02  -4.3287503231795567e-02  -4.7355052499558396e-02  -4.6459589453685390e-02  -4.3750401996072760e-02  -4.4524109089005399e-02  -3.6030218142666125e-02  -3.5718892048227577e-02  -4.0550118716204633e-02  -4.0617607636754961e-02  -4.2552473685169949e-02  -4.3382959237605163e-02  -2.6889251794124224e-02  -2.3928670254227125e-02  -2.4162789172623010e-02  -4.8772129300639913e-02  -4.9234041646640532e-02  -2.3713908777985550e-02  -2.3409318501021788e-02  -2.3134254908401316e-02  -2.2766698661992883e-02  -3.7082476337968788e-02  -4.7670797725359905e-02  -4.6995710814026974e-02  -2.2514958989595858e-02  -2.2313694265359073e-02  -3.6084130214764705e-02  -4.4017253151622089e-02  -3.5859403215735740e-02  -4.3725766171470816e-02  -2.2179001135372366e-02  -2.2332361729089398e-02  -4.0552298974672607e-02  -4.0315887913986256e-02  -4.0931455528533181e-02  -4.0807670739246078e-02  -3.4854261147274204e-02  -3.4618686941870862e-02  -4.7672910049646661e-02  -4.7444551827704899e-02  -3.4554489987139669e-02  -4.2223854332435570e-02  -3.4224938776765829e-02  -4.1666754597444532e-02  -3.7837624429469870e-02  -3.8357869742619663e-02  -1.8742378924549840e-02  -2.0069686217106239e-02  -2.3694675176708247e-02  -2.3835126612286896e-02  -2.1700288759369270e-02  -2.1843345165110425e-02  -4.1941092401423657e-02  -4.2063785859695758e-02  -4.1582360846233866e-02  -4.2150148010905754e-02  -4.2099917131016143e-02  -4.1912830682128761e-02  -2.2817946230852440e-02  -2.2392585246547008e-02  -4.5623159088394274e-02  -4.5450359151144419e-02  -5.0296792180905645e-02  -5.0225864689375815e-02  -4.6228025528279593e-02  -4.6470568750632844e-02  -3.4662418402735901e-02  -3.4242731012227016e-02  -4.8450303251491321e-02  -4.7959051226970383e-02  -5.1788485161064511e-02  -5.2176540777014023e-02  -3.5729361983889305e-02  -3.5482025343576418e-02  -3.3597400716498471e-02  -3.3319440243541623e-02  -3.9116095586650322e-02  -3.8980151575294650e-02  -1.6171102201629432e-02  -1.6068019917832795e-02  -3.4456368164681769e-02  -3.4199707942929952e-02  -4.6876849125736413e-02  -4.5443364420253915e-02  -4.7618018083170344e-02  -4.6040446978265141e-02  -5.0578952798956939e-02  -5.0421986942371141e-02  -5.2612999628091635e-02  -5.2546500849481322e-02  -3.2606742360292255e-02  -3.2317141632621824e-02  -3.8392183525606839e-02  -3.7645418526057052e-02  -5.0462662113172255e-02  -4.9932438717389963e-02  -5.3638929010140522e-02  -5.4238348298284896e-02  -4.5133057769885729e-02  -4.6004796643433585e-02  -4.2071284536621713e-02  -4.1474410311732234e-02  -3.3896118654462355e-02  -1.9304247884046419e-02  -1.9271358486701286e-02  -3.5632108496291427e-02  -2.0403167616945935e-02  -2.0686933070830412e-02  -1.9890810529262025e-02  -1.6651938553163419e-02  -1.5081205786404171e-02  -1.5167685324985377e-02  -3.4605171680135431e-02  -3.4819211880767524e-02  -1.5568471859635629e-02  -1.5709980137112705e-02  -2.0089832722995041e-02  -1.8940057378498572e-02  -1.9130679016948524e-02  -3.3407170977710086e-02  -3.3051939993041665e-02  -1.6351808285598051e-02  -1.6472376450921488e-02  -4.0336647124291455e-02  -3.9971471189803390e-02  -4.2828858177482547e-02  -4.2461535620909326e-02  -5.1858193493617435e-02  -5.2676705722153216e-02  -4.1180871658558285e-02  -4.1097215358612084e-02  -4.3094558402884627e-02  -4.8704143113803833e-02  -4.8799477371514854e-02  -4.5213104193799529e-02  -4.5171347118523698e-02  -4.0834508693613103e-02  -3.2071239261507831e-02  -3.1876537824605235e-02  -4.9170189231691953e-02  -4.8287734923887528e-02  -3.3756977769420930e-02  -3.3466335250190590e-02  -1.6027209468376734e-02  -1.6044852789265450e-02  -3.3126249153221168e-02  -3.2954190019337665e-02  -1.6718031945059088e-02  -1.6516544734843527e-02  -3.3716112850682434e-02  -3.3594124838302819e-02  -4.3229599046910309e-02  -1.9041136544328784e-02  -3.8102061613405513e-02  -3.7714317499759308e-02  -3.5297496397230371e-02  -3.5316552861751054e-02  -3.8134711058803575e-02  -3.8053283903929480e-02  -3.9657611799958900e-02  -4.3126877727947814e-02  -4.0164305078096547e-02  -4.3838051274905511e-02  -5.0578700715978926e-02  -5.0217733454747025e-02  -4.6386753527401986e-02  -4.6921080057698981e-02  -4.3036728507198425e-02  -4.3206804643109151e-02  -3.8458809227748220e-02  -3.8192614706610721e-02  -4.6201704210453262e-02  -4.5645180452927300e-02  -4.8472518693777847e-02  -4.8341895327471886e-02  -4.1713905564943275e-02  -4.2214935692087917e-02  -3.4139368300230587e-02  -3.4396184942087550e-02  -3.6150955136951553e-02  -3.5873035407644312e-02  -3.6743720785654937e-02  -3.7059884865441796e-02  -4.5798109836679479e-02  -4.5532105690252039e-02  -3.2495481188449173e-02  -3.2389043565749953e-02  -3.4156089034651310e-02  -3.3995578055719310e-02  -4.2003927744232138e-02  -4.2341140093073895e-02  -4.1676204911631855e-02  -4.1726668134090220e-02  -1.8006948167805410e-02  -1.7909470593198869e-02  -3.6333270688549017e-02  -3.6696564877084219e-02  -3.7038688930861728e-02  -3.6795744034254577e-02  -4.0489471754367706e-02  -4.03175079321