<?xml version="1.0"?>
<VTKFile type="UnstructuredGrid"  version="0.1"  >
<UnstructuredGrid>
<Piece  NumberOfPoints="1286" NumberOfCells="2474">
<Points>
<DataArray  type="Float64"  NumberOfComponents="3"  format="ascii">0 0 0  0 1 0  1 1 0  1 0 0  1.1 -0.1 0  -0.1 -0.1 0  1.1 1.1 0  -0.1 1.1 0  0.27 0.5 0  0.5 0.5 0  0 0.9499999999997918 0  0 0.8999999999995836 0  0 0.8499999999996529 0  0 0.7999999999999998 0  0 0.7500000000003466 0  0 0.7000000000006934 0  0 0.6500000000010401 0  0 0.6000000000013869 0  0 0.5500000000017335 0  0 0.5000000000020587 0  0 0.4500000000018723 0  0 0.4000000000016644 0  0 0.3500000000014564 0  0 0.3000000000012483 0  0 0.2500000000010403 0  0 0.2000000000008322 0  0 0.1500000000006241 0  0 0.100000000000416 0  0 0.05000000000020799 0  0.04999999999989965 0 0  0.09999999999981467 0 0  0.1499999999997036 0 0  0.1999999999995579 0 0  0.2499999999994121 0 0  0.2999999999992664 0 0  0.3499999999991206 0 0  0.3999999999989749 0 0  0.4499999999988292 0 0  0.4999999999986943 0 0  0.5499999999988151 0 0  0.5999999999989468 0 0  0.6499999999990784 0 0  0.69999999999921 0 0  0.7499999999993417 0 0  0.7999999999994734 0 0  0.8499999999996051 0 0  0.8999999999997368 0 0  0.9499999999998684 0 0  1 0.04999999999989965 0  1 0.09999999999981467 0  1 0.1499999999997036 0  1 0.1999999999995579 0  1 0.2499999999994121 0  1 0.2999999999992664 0  1 0.3499999999991206 0  1 0.3999999999989749 0  1 0.4499999999988292 0  1 0.4999999999986943 0  1 0.5499999999988151 0  1 0.5999999999989468 0  1 0.6499999999990784 0  1 0.69999999999921 0  1 0.7499999999993417 0  1 0.7999999999994734 0  1 0.8499999999996051 0  1 0.8999999999997368 0  1 0.9499999999998684 0  0.9499999999997918 1 0  0.8999999999995836 1 0  0.8499999999996529 1 0  0.7999999999999998 1 0  0.7500000000003466 1 0  0.7000000000006934 1 0  0.6500000000010401 1 0  0.6000000000013869 1 0  0.5500000000017335 1 0  0.5000000000020587 1 0  0.4500000000018723 1 0  0.4000000000016644 1 0  0.3500000000014564 1 0  0.3000000000012483 1 0  0.2500000000010403 1 0  0.2000000000008322 1 0  0.1500000000006241 1 0  0.100000000000416 1 0  0.05000000000020799 1 0  -0.1 1.05000000000004 0  -0.1 1.000000000000079 0  -0.1 0.9500000000001624 0  -0.1 0.9000000000003032 0  -0.1 0.850000000000444 0  -0.1 0.8000000000005848 0  -0.1 0.7500000000007256 0  -0.1 0.7000000000008665 0  -0.1 0.6500000000010508 0  -0.1 0.6000000000012352 0  -0.1 0.5500000000014196 0  -0.1 0.500000000001539 0  -0.1 0.4500000000014195 0  -0.1 0.4000000000013 0  -0.1 0.3500000000011588 0  -0.1 0.3000000000010178 0  -0.1 0.2500000000008986 0  -0.1 0.2000000000007579 0  -0.1 0.1500000000006174 0  -0.1 0.1000000000005272 0  -0.1 0.05000000000040083 0  -0.1 2.671196597248127e-13 0  -0.1 -0.0499999999998666 0  -0.0500000000000906 -0.1 0  -1.730560139634463e-13 -0.1 0  0.04999999999975802 -0.1 0  0.09999999999961506 -0.1 0  0.1499999999994613 -0.1 0  0.199999999999302 -0.1 0  0.2499999999991446 -0.1 0  0.2999999999990088 -0.1 0  0.3499999999988296 -0.1 0  0.3999999999986936 -0.1 0  0.4499999999985143 -0.1 0  0.4999999999984002 -0.1 0  0.5499999999985247 -0.1 0  0.5999999999986493 -0.1 0  0.6499999999987955 -0.1 0  0.6999999999989417 -0.1 0  0.7499999999990659 -0.1 0  0.7999999999992116 -0.1 0  0.8499999999993573 -0.1 0  0.8999999999994526 -0.1 0  0.949999999999584 -0.1 0  0.9999999999997226 -0.1 0  1.049999999999861 -0.1 0  1.1 -0.0500000000000906 0  1.1 -1.730560139634463e-13 0  1.1 0.04999999999975802 0  1.1 0.09999999999961506 0  1.1 0.1499999999994613 0  1.1 0.199999999999302 0  1.1 0.2499999999991446 0  1.1 0.2999999999990088 0  1.1 0.3499999999988296 0  1.1 0.3999999999986936 0  1.1 0.4499999999985143 0  1.1 0.4999999999984002 0  1.1 0.5499999999985247 0  1.1 0.5999999999986493 0  1.1 0.6499999999987955 0  1.1 0.6999999999989417 0  1.1 0.7499999999990659 0  1.1 0.7999999999992116 0  1.1 0.8499999999993573 0  1.1 0.8999999999994526 0  1.1 0.949999999999584 0  1.1 0.9999999999997226 0  1.1 1.049999999999861 0  1.05000000000004 1.1 0  1.000000000000079 1.1 0  0.9500000000001624 1.1 0  0.9000000000003032 1.1 0  0.850000000000444 1.1 0  0.8000000000005848 1.1 0  0.7500000000007256 1.1 0  0.7000000000008665 1.1 0  0.6500000000010508 1.1 0  0.6000000000012352 1.1 0  0.5500000000014196 1.1 0  0.500000000001539 1.1 0  0.4500000000014195 1.1 0  0.4000000000013 1.1 0  0.3500000000011588 1.1 0  0.3000000000010178 1.1 0  0.2500000000008986 1.1 0  0.2000000000007579 1.1 0  0.1500000000006174 1.1 0  0.1000000000005272 1.1 0  0.05000000000040083 1.1 0  2.671196597248127e-13 1.1 0  -0.0499999999998666 1.1 0  0.2741653032937006 0.475583655064985 0  0.2835196021321564 0.4525766763138641 0  0.295666873269979 0.4308969071135702 0  0.3096128601158091 0.4103223150136817 0  0.3248767945961761 0.3907031830849394 0  0.3412031772166197 0.371957841062928 0  0.3584541447472429 0.3540592928381123 0  0.3765645943122306 0.3370309790285392 0  0.3955238690554847 0.3209537469047282 0  0.4153718330855516 0.3059891355675915 0  0.4362056602134159 0.2924349171675425 0  0.4581943640792708 0.2808609856537971 0  0.481567231191905 0.2724869842302821 0  0.5062048720820093 0.2703140883403539 0  0.5303054803804407 0.2761504383688412 0  0.5529580519845316 0.2863469749543258 0  0.5743431824325438 0.2990090431898272 0  0.5946678190702607 0.3133179506432537 0  0.614063150161175 0.3288657038540442 0  0.6325962270881667 0.3454328218618994 0  0.6502814401078543 0.3629024568442196 0  0.6670821521294023 0.3812241587630653 0  0.6829003828763457 0.4003998229607041 0  0.6975476480587646 0.4204826175349758 0  0.7106760321454227 0.441586193542175 0  0.7216052398362239 0.4638990519857907 0  0.7288231624277235 0.4876416868783305 0  0.7288231617909364 0.5123583166583477 0  0.7216052385133062 0.5361009512360894 0  0.7106760305048241 0.5584138093754348 0  0.6975476462571144 0.5795173851186164 0  0.6829003809901917 0.5996001794615868 0  0.6670821502031975 0.6187758434476484 0  0.6502814381732671 0.6370975451627895 0  0.6325962251551186 0.6545671799559513 0  0.614063148238324 0.6711342977773087 0  0.5946678171608416 0.6866820507978046 0  0.5743431805492389 0.7009909580378529 0  0.5529580501219362 0.7136530260304497 0  0.5303054785344948 0.7238495623015784 0  0.5062048702459614 0.7296859118399075 0  0.4815672295282994 0.7275130153542944 0  0.4581943626317547 0.7191390136898183 0  0.4362056589684231 0.7075650820931598 0  0.41537183201002 0.6940108636741614 0  0.3955238681344808 0.6790462523564517 0  0.3765645935299382 0.6629690202719314 0  0.3584541440953559 0.6459407065179258 0  0.341203176690828 0.6280421583638174 0  0.3248767941869738 0.609296816419298 0  0.309612859819355 0.5896776845803281 0  0.2956668730804902 0.5691030925825562 0  0.2835196020265535 0.5474233234717584 0  0.2741653032583354 0.5244163448209567 0  0.5020088324777096 0.6132767132041275 0  0.5074117745570529 0.3806475537927486 0  0.6277222017751818 0.4985356259977751 0  0.3671875950827844 0.5000000000103387 0  0.4119176764972722 0.4234537734304009 0  0.4092548304326251 0.5762586538642189 0  0.5771983476328721 0.4083738058226423 0  0.5769068439081466 0.591816429425379 0  0.4440628874503976 0.6344726651706447 0  0.4881571814564404 0.6690996776502598 0  0.5387603177600275 0.6652844464816458 0  0.4401720098508936 0.3630269463022678 0  0.4886645938858623 0.329101868748653 0  0.540365556089569 0.3345703678134941 0  0.6361395177479316 0.5768135378977317 0  0.6362513600160984 0.4234606743154304 0  0.3592510073962175 0.5668059073182394 0  0.3592510079513629 0.4331940924801515 0  0.3983550004891961 0.6216490165667614 0  0.3986835360893648 0.3766259228174406 0  0.5802003286975546 0.6361346267959425 0  0.5802003302033126 0.3638653753316169 0  0.6749415724068745 0.5000000003801613 0  0.6719765444934913 0.5457521816478081 0  0.672050583273525 0.4547290183740491 0  0.3248192912467827 0.4618882528838554 0  0.3141280592891165 0.5050354414055612 0  0.6168258533187184 0.3858704935022326 0  0.6172022584935163 0.6149036974669551 0  0.3240030508927882 0.5466862256222584 0  0.4335937975423051 0.511727352739259 0  0.451611626780151 0.6737465658191808 0  0.4516116278525233 0.3262534333555598 0  0.367273648770863 0.3975519270311774 0  0.3672736481862175 0.6024480725906907 0  0.555198465007856 0.5212583517158863 0  0.5183165743641929 0.4483618805044824 0  0.5164602106697547 0.3068227224172806 0  0.5160085430868886 0.6928740446036254 0  0.4726100523870725 0.5658098102047321 0  0.4732401111352295 0.4529456966889245 0  0.413974254062909 0.649037510897534 0  0.414371254608598 0.3513084171385178 0  0.6014187097916132 0.4571160722000281 0  0.600216400665367 0.5412846133439817 0  0.5675288953041284 0.3362713513561459 0  0.5673377941072666 0.6637113661158167 0  0.3975190352465809 0.5316118640258497 0  0.3916694979598965 0.4645772852923979 0  0.4495627090370944 0.4209247524646974 0  0.6913036334574894 0.5249476480333543 0  0.6922298281746397 0.4741376673831132 0  0.5436361135037573 0.6083647345921287 0  0.5453693961141749 0.3911330427532566 0  0.6696805870384934 0.5734890681253791 0  0.6696998632800873 0.4266194680606748 0  0.4321632625174379 0.6053534439120685 0  0.3271886779007123 0.4327406580904703 0  0.4780139104522337 0.7008324826439967 0  0.4780139118416828 0.299167516966974 0  0.4662023076279025 0.6561355628764883 0  0.4639491363726838 0.3443581159684758 0  0.6424686294056461 0.3964419195041953 0  0.6424686275735636 0.6035580829753678 0  0.6071636325196685 0.3589457535246979 0  0.6071636308516208 0.6410542482818911 0  0.3020877692621127 0.4766504814968742 0  0.331234573955727 0.5713026320860402 0  0.7034742222838594 0.5000000011152624 0  0.5149267895390993 0.5558478828343028 0  0.3037439686285069 0.5294401375316873 0  0.3441104389549947 0.4101558013693155 0  0.4624800088776305 0.6043447775744015 0  0.5543239610610463 0.3127278537581131 0  0.5534797111710692 0.6873672656104929 0  0.3607862808491066 0.5347213446110072 0  0.3365185425165108 0.5221824352468147 0  0.5554187329361455 0.3610271670984227 0  0.55483046204039 0.638862052127
[...]
<PointData  Scalars="state"> 
<DataArray  type="Float64"  Name="state"  format="ascii">0.0000000000000000e+00  0.0000000000000000e+00  0.0000000000000000e+00  0.0000000000000000e+00  0.0000000000000000e+00  0.0000000000000000e+00  0.0000000000000000e+00  0.0000000000000000e+00  -5.7028625297935891e-02  -3.8418500393633544e-02  0.0000000000000000e+00  0.0000000000000000e+00  0.0000000000000000e+00  0.0000000000000000e+00  0.0000000000000000e+00  0.0000000000000000e+00  0.0000000000000000e+00  0.0000000000000000e+00  0.0000000000000000e+00  0.0000000000000000e+00  0.0000000000000000e+00  0.0000000000000000e+00  0.0000000000000000e+00  0.0000000000000000e+00  0.0000000000000000e+00  0.0000000000000000e+00  0.0000000000000000e+00  0.0000000000000000e+00  0.0000000000000000e+00  0.0000000000000000e+00  0.0000000000000000e+00  0.0000000000000000e+00  0.0000000000000000e+00  0.0000000000000000e+00  0.0000000000000000e+00  0.0000000000000000e+00  0.0000000000000000e+00  0.0000000000000000e+00  0.0000000000000000e+00  0.0000000000000000e+00  0.0000000000000000e+00  0.0000000000000000e+00  0.0000000000000000e+00  0.0000000000000000e+00  0.0000000000000000e+00  0.0000000000000000e+00  0.0000000000000000e+00  0.0000000000000000e+00  0.0000000000000000e+00  0.0000000000000000e+00  0.0000000000000000e+00  0.0000000000000000e+00  0.0000000000000000e+00  0.0000000000000000e+00  0.0000000000000000e+00  0.0000000000000000e+00  0.0000000000000000e+00  0.0000000000000000e+00  0.0000000000000000e+00  0.0000000000000000e+00  0.0000000000000000e+00  0.0000000000000000e+00  0.0000000000000000e+00  0.0000000000000000e+00  0.0000000000000000e+00  0.0000000000000000e+00  0.0000000000000000e+00  0.0000000000000000e+00  0.0000000000000000e+00  0.0000000000000000e+00  0.0000000000000000e+00  0.0000000000000000e+00  0.0000000000000000e+00  0.0000000000000000e+00  0.0000000000000000e+00  0.0000000000000000e+00  0.0000000000000000e+00  0.0000000000000000e+00  0.0000000000000000e+00  0.0000000000000000e+00  0.0000000000000000e+00  0.0000000000000000e+00  0.0000000000000000e+00  0.0000000000000000e+00  0.0000000000000000e+00  0.0000000000000000e+00  0.0000000000000000e+00  0.0000000000000000e+00  0.0000000000000000e+00  0.0000000000000000e+00  0.0000000000000000e+00  0.0000000000000000e+00  0.0000000000000000e+00  0.0000000000000000e+00  0.0000000000000000e+00  0.0000000000000000e+00  0.0000000000000000e+00  0.0000000000000000e+00  0.0000000000000000e+00  0.0000000000000000e+00  0.0000000000000000e+00  0.0000000000000000e+00  0.0000000000000000e+00  0.0000000000000000e+00  0.0000000000000000e+00  0.0000000000000000e+00  0.0000000000000000e+00  0.0000000000000000e+00  0.0000000000000000e+00  0.0000000000000000e+00  0.0000000000000000e+00  0.0000000000000000e+00  0.0000000000000000e+00  0.0000000000000000e+00  0.0000000000000000e+00  0.0000000000000000e+00  0.0000000000000000e+00  0.0000000000000000e+00  0.0000000000000000e+00  0.0000000000000000e+00  0.0000000000000000e+00  0.0000000000000000e+00  0.0000000000000000e+00  0.0000000000000000e+00  0.0000000000000000e+00  0.0000000000000000e+00  0.0000000000000000e+00  0.0000000000000000e+00  0.0000000000000000e+00  0.0000000000000000e+00  0.0000000000000000e+00  0.0000000000000000e+00  0.0000000000000000e+00  0.0000000000000000e+00  0.0000000000000000e+00  0.0000000000000000e+00  0.0000000000000000e+00  0.0000000000000000e+00  0.0000000000000000e+00  0.0000000000000000e+00  0.0000000000000000e+00  0.0000000000000000e+00  0.0000000000000000e+00  0.0000000000000000e+00  0.0000000000000000e+00  0.0000000000000000e+00  0.0000000000000000e+00  0.0000000000000000e+00  0.0000000000000000e+00  0.0000000000000000e+00  0.0000000000000000e+00  0.0000000000000000e+00  0.0000000000000000e+00  0.0000000000000000e+00  0.0000000000000000e+00  0.0000000000000000e+00  0.0000000000000000e+00  0.0000000000000000e+00  0.0000000000000000e+00  0.0000000000000000e+00  0.0000000000000000e+00  0.0000000000000000e+00  0.0000000000000000e+00  0.0000000000000000e+00  0.0000000000000000e+00  0.0000000000000000e+00  0.0000000000000000e+00  0.0000000000000000e+00  0.0000000000000000e+00  0.0000000000000000e+00  0.0000000000000000e+00  0.0000000000000000e+00  0.0000000000000000e+00  0.0000000000000000e+00  0.0000000000000000e+00  0.0000000000000000e+00  0.0000000000000000e+00  0.0000000000000000e+00  -5.6590470065054986e-02  -5.6181326817485472e-02  -5.5685404191801922e-02  -5.5356151909589507e-02  -5.5118151514508690e-02  -5.5082693402891479e-02  -5.4940036402969267e-02  -5.5047997218242398e-02  -5.5265753990217326e-02  -5.5422537714152537e-02  -5.5620419031709646e-02  -5.6039337723116311e-02  -5.6553931996362106e-02  -5.6599138798461887e-02  -5.6256818404313992e-02  -5.5892087881760838e-02  -5.5427181761946838e-02  -5.5248082906040948e-02  -5.4981622263372470e-02  -5.4897503303799222e-02  -5.4881930047149322e-02  -5.4834224085156903e-02  -5.5177124335575700e-02  -5.5324526152206580e-02  -5.5475655370247810e-02  -5.6003923908406562e-02  -5.6317857729488850e-02  -5.6324371978274779e-02  -5.6033846071428806e-02  -5.5512476801923685e-02  -5.5369110527287609e-02  -5.5230285600907314e-02  -5.4889930910654881e-02  -5.4939918982654434e-02  -5.4957927680102582e-02  -5.5046020543178073e-02  -5.5313754987831698e-02  -5.5485074936420915e-02  -5.5945651803817255e-02  -5.6298628215193006e-02  -5.6630800831229705e-02  -5.6573875928833534e-02  -5.6046718710806714e-02  -5.5620339263226383e-02  -5.5416486311505218e-02  -5.5253117725398343e-02  -5.5025081564289223e-02  -5.4903078763597971e-02  -5.5048770674761008e-02  -5.5155700238644308e-02  -5.5254159472190763e-02  -5.5656013188567034e-02  -5.6159633611703494e-02  -5.6552049899818053e-02  -4.3293556294103315e-02  -4.3755021154005112e-02  -4.4347382430179501e-02  -4.4835902663917841e-02  -4.3754103028268411e-02  -4.3884031487146626e-02  -4.3963145853460554e-02  -4.4026432388278892e-02  -4.6176116532839505e-02  -4.8287412779452532e-02  -4.8414464430051429e-02  -4.6622439101829401e-02  -4.8473807252941828e-02  -4.8418869173100780e-02  -4.7109833337571537e-02  -4.7055824266768180e-02  -4.7162486057241625e-02  -4.7142002045230898e-02  -4.7572880484639757e-02  -4.7730774614064261e-02  -4.7367092267364241e-02  -4.7290590042933477e-02  -4.8482604825374198e-02  -4.9078850750574859e-02  -4.9053752438278544e-02  -4.9323007047741146e-02  -4.9953842627054802e-02  -4.8071805684553957e-02  -4.8242779583095738e-02  -4.9829713796121833e-02  -4.0330834979323077e-02  -4.9573565693562659e-02  -4.9578685473918728e-02  -4.8699620102879718e-02  -4.8665566887175202e-02  -3.9832458781449337e-02  -3.9736112530656918e-02  -5.0900359137479187e-02  -5.0888916568419575e-02  -4.0491469048724013e-02  -3.9729368862759240e-02  -4.9129351221025422e-02  -4.9049057005303549e-02  -4.3063604264005129e-02  -4.2927797699057926e-02  -4.9414022483318089e-02  -4.9467306169194362e-02  -4.2814579775910147e-02  -4.3403442193419316e-02  -4.1917301179501466e-02  -5.0662206910450563e-02  -5.0812110710484991e-02  -4.3680545438790026e-02  -4.3676177837175284e-02  -5.0221514653864936e-02  -5.0174998313620010e-02  -4.4452675919783087e-02  -5.0352990179019327e-02  -5.1777525570255827e-02  -5.1763789512648116e-02  -4.7398699246524914e-02  -4.7471146105161281e-02  -4.9563841503899926e-02  -4.9618327967825733e-02  -4.9585211782767293e-02  -4.9651207106483498e-02  -5.1522172372444927e-02  -5.0253092733017757e-02  -5.1735412937006509e-02  -3.9656148171901426e-02  -5.1545511677314589e-02  -5.0080012625702282e-02  -4.3186474409728677e-02  -5.1341980807687156e-02  -5.1365453027655154e-02  -4.5916601153099555e-02  -4.7801357226177649e-02  -4.6457114668037897e-02  -4.6515812491979683e-02  -4.6052402174909107e-02  -4.6020591383534752e-02  -4.6107636113226734e-02  -4.5623665179973835e-02  -4.5557649610461423e-02  -4.5840650543463542e-02  -4.5870879920054584e-02  -4.5503837676213348e-02  -4.6696356177062144e-02  -5.0009313843809654e-02  -5.0944733044237550e-02  -5.0962384768451698e-02  -4.5641745456524538e-02  -4.6383237854890270e-02  -4.9952378505874771e-02  -4.9898910120259765e-02  -3.9980113322913943e-02  -4.5880115972230358e-02  -4.5812794670288766e-02  -4.4684411265184826e-02  -5.1552154077089317e-02  -5.1526891268009849e-02  -4.7494785043688238e-02  -5.0329958270077198e-02  -5.0470828115843809e-02  -5.0867215825902916e-02  -5.0934287932660721e-02  -4.6677451457811103e-02  -4.8126413364295358e-02  -4.8123011525375382e-02  -5.3133631598699389e-02  -5.2067779823551125e-02  -5.2520745447082733e-02  -5.2571317371310364e-02  -5.1923945672990829e-02  -5.1919809737493966e-02  -5.0787283614023827e-02  -5.0845668924733620e-02  -4.6819820377412717e-02  -4.7465605307592369e-02  -4.7532496954900180e-02  -4.2283834561919691e-02  -4.6809474931363150e-02  -4.6775841520563917e-02  -4.7832012830447072e-02  -4.0725712931324820e-02  -4.6288218485458547e-02  -4.6392935605078650e-02  -4.4323394071414203e-02  -4.6477365220334320e-02  -4.6448100144616526e-02  -5.2370962337043830e-02  -5.2321048775960173e-02  -5.2554262381447121e-02  -5.1261652586297397e-02  -5.1209598129450772e-02  -4.7835656117451664e-02  -4.1030299893642014e-02  -4.8475248290411714e-02  -4.8011725178008023e-02  -4.9632360378591082e-02  -4.9634199052597167e-02  -5.1306757273779993e-02  -4.5719159132082167e-02  -5.2177918358937696e-02  -5.2180472656572011e-02  -4.8449600758860872e-02  -4.8473752502361460e-02  -4.1506626855323872e-02  -4.2169616877780147e-02  -5.3092797518846109e-02  -5.3043423380650753e-02  -4.5805615834041705e-02  -4.1355503850148460e-02  -4.1016980955429681e-02  -5.0145251875136299e-02  -5.0208350392603802e-02  -4.6769076612269797e-02  -5.3388211664712241e-02  -4.9386845047034590e-02  -4.5318084837251082e-02  -4.5379048577811165e-02  -5.1234892171728268e-02  -3.9250006393737998e-02  -5.2235364474889079e-02  -5.2219442859817645e-02  -4.7486731331899117e-02  -4.7574803311960151e-02  -5.0066111999708209e-02  -5.0090666176469970e-02  -4.1446949592273720e-02  -4.7496324667991585e-02  -4.7464437224271822e-02  -4.5125588233707416e-02  -5.3093057472414752e-02  -5.3052500032175057e-02  -5.1656880574718664e-02  -5.1647080859896610e-02  -5.2278916554619817e-02  -5.2342343250045428e-02  -4.4894134205222300e-02  -4.3974848292417656e-02  -4.7591104718820311e-02  -4.7687961343161937e-02  -5.2222276018456359e-02  -4.1476309856289327e-02  -4.4865705626753752e-02  -4.3882734342737394e-02  -4.7939947592087001e-02  -4.5081205162974043e-02  -4.5050638456578120e-02  -3.9276061733035869e-02  -4.7199687407666245e-02  -4.7381701870238199e-02  -5.1268008512590377e-02  -5.1324829918442165e-02  -5.1980069804206185e-02  -6.4201180555167686e-02  -6.4287483318892946e-02  -6.4951316284869540e-02  -6.5016910366972297e-02  -6.0840638339986722e-02  -6.0556960109552679e-02  -6.2630360555298775e-02  -6.2593722390149889e-02  -6.2783861402445601e-02  -6.3021034316185179e-02  -6.4552856245366219e-02  -6.4533858000384345e-02  -5.6026282110756900e-02  -5.6018299665960593e-02  -5.4526950712873806e-02  -5.5932367616551598e-02  -7.2694305460797470e-02  -7.2769345240287317e-02  -7.2502272448566704e-02  -7.2613526154141586e-02  -7.1067483019230465e-02  -7.1179715873399413e-02  -7.1602417245189898e-02  -7.1563963639013378e-02  -6.6080731189152489e-02  -6.5828270322148566e-02  -6.4915745036458694e-02  -6.7488325750105105e-02  -6.4890857729147239e-02  -6.7443478324995906e-02  -6.6445521775069821e-02  -6.6574376630591542e-02  -4.7226489750959853e-02  -3.6380375438667199e-02  -4.7248726844696137e-02  -3.6403449389169666e-02  -6.7042961660085484e-02  -6.7036833474442781e-02  -3.4965288644224025e-02  -3.4927388052959522e-02  -6.7929331881724925e-02  -6.8077176858126462e-02  -4.5635761704046741e-02  -4.5488662625690325e-02  -6.4772822524668483e-02  -4.6634623629813597e-02  -4.6668524051121207e-02  -6.4798496588003393e-02  -6.4809808540316080e-02  -4.7165031617691970e-02  -4.7252421004097669e-02  -5.0556938834719893e-02  -5.0540005749084752e-02  -6.4087237237315589e-02  -4.1406161743640646e-02  -4.3661537648767068e-02  -4.0745966512872711e-02  -4.0741578365784750e-02  -4.0315396532532022e-02  -3.9088984140188271e-02  -6.6141180912511185e-02  -6.6008031345424489e-02  -6.7860171695862864e-02  -6.8001480059547412e-02  -6.7696913641816722e-02  -6.7559712880720463e-02  -6.7759803226298612e-02  -6.7633595188063514e-02  -6.6000903019058754e-02  -6.6057418446993019e-02  -6.9477992625605542e-02  -6.9432994358275296e-02  -6.9025354003921721e-02  -6.9088150958000125e-02  -3.8607499616102540e-02  -3.8981153790954556e-02  -3.7759964128017597e-02  -3.7594064544073956e-02  -6.6872807193206540e-02  -6.6889895270384178e-02  -3.7122266219046123e-02  -3.7138725467309723e-02  -6.6523987292758852e-02  -6.6430743416324947e-02  -6.3655371743093256e-02  -6.3508675344020174e-02  -6.3710961559701074e-02  -6.3547512332968084e-02  -4.7258574249371216e-02  -4.7245200426335843e-02  -6.4139562927059635e-02  -6.4100888827257077e-02  -6.4334632261610569e-02  -6.4270563357462354e-02  -6.4584577432822476e-02  -6.4719371317102606e-02  -5.0144762054282928e-02  -5.0091055120321908e-02  -5.1033247770713885e-02  -5.0982287000433314e-02  -6.3433361132380073e-02  -6.3534465269458926e-02  -6.0277660380650508e-02  -6.0280995530064815e-02  -6.4140786292314678e-02  -6.4216527323581421e-02  -7.0568530857826925e-02  -7.0623864933630390e-02  -6.4296867338635613e-02  -6.4300942899428823e-02  -6.3308109661243048e-02  -6.3282989092771857e-02  -2.9688404475625006e-02  -2.9742551605486001e-02  -6.9602720441755625e-02  -6.9407614939278411e-02  -6.4357787054311236e-02  -6.4332327249204693e-02  -3.4642640157414785e-02  -3.4647859434410150e-02  -2.9508964227473431e-02  -2.9522622765520631e-02  -3.1467035162773611e-02  -6.5006181562423396e-02  -6.5038762088771601e-02  -5.1368773900526715e-02  -5.1333472443894766e-02  -6.1009958102560435e-02  -6.1341306186808366e-02  -4.9986933739293596e-02  -5.0065979859813058e-02  -7.2943074684274162e-02  -7.3045357071220826e-02  -7.3551087522599909e-02  -7.3485632880022148e-02  -6.3360382929565334e-02  -6.3431649862667444e-02  -5.8440388334023166e-02  -5.9098211697149995e-02  -6.3924341788596920e-02  -6.3868593538121535e-02  -3.3025792504567837e-02  -2.9030485231279508e-02  -2.9052923486708862e-02  -1.5350686131951967e-02  -1.5357108400103996e-02  -1.5270967888667834e-02  -1.5259273878497100e-02  -2.6893185945316877e-02  -2.6914922513687548e-02  -6.8754207921989691e-02  -6.8911473404933532e-02  -7.0056405082038614e-02  -7.0034009408568507e-02  -5.9058456073448541e-02  -5.9034256940692212e-02  -7.0837683168209958e-02  -7.0936966360888823e-02  -5.7531205557716847e-02  -5.7327753869956324e-02  -7.1032438259915370e-02  -7.0952315931603588e-02  -6.3168941264838949e-02  -6.3164620592495349e-02  -3.7709609528378644e-02  -3.7711518601029774e-02  -6.2931940831838021e-02  -6.2997813879532905e-02  -6.1944163932688763e-02  -5.4299225099585645e-02  -5.2921107022626791e-02  -2.7536805021801451e-02  -2.7545995041825356e-02  -5.9422432779752531e-02  -5.9542080425383358e-02  -5.5698582565066261e-02  -5.5734913018082262e-02  -6.8076560323687557e-02  -6.7782949113598889e-02  -5.5910959573578146e-02  -5.6054920023157546e-02  -6.2534451123191517e-02  -6.2446312464868252e-02  -5.8466748981042170e-02  -5.8450443044980420e-02  -6.4790286992701743e-02  -6.4943904851912856e-02  -3.5947660504499823e-02  -2.9600869309230868e-02  -2.9617183441698478e-02  -6.0884517562819165e-02  -6.0923114243494086e-02  -2.8563666950450577e-02  -2.8422405139732525e-02  -2.6873201667765453e-02  -2.6839617544030196e-02  -6.3094114820985980e-02  -5.8305654954738308e-02  -5.8224433186182242e-02  -2.6456074330135398e-02  -2.6437952967013619e-02  -6.2803556386794857e-02  -6.9650649678702409e-02  -6.2767934339210602e-02  -6.9606071962550378e-02  -2.8923255719035541e-02  -2.8932493527693174e-02  -6.4523389939852682e-02  -6.4541255559105698e-02  -6.5335907934668924e-02  -6.5340202835720854e-02  -6.2375678958061953e-02  -6.2392474481002831e-02  -5.9681053564282834e-02  -5.9624937569969894e-02  -6.2174521884555238e-02  -6.8841654411333317e-02  -6.2243005629865747e-02  -6.8926785269662616e-02  -5.0353448063456763e-02  -5.0862003627514564e-02  -2.3565046815503136e-02  -2.5589918613284496e-02  -2.9995750828838225e-02  -3.0001246086723901e-02  -2.4627260320360698e-02  -2.4656673313647466e-02  -6.2532447855052686e-02  -6.2527457612552351e-02  -6.8207402203478887e-02  -6.8153910498650466e-02  -5.6819339824168660e-02  -5.6810112177634292e-02  -2.7329996102994438e-02  -2.7273301204795163e-02  -6.4618019904643484e-02  -6.4607024853599967e-02  -6.9832649574632449e-02  -6.9981696223597595e-02  -6.7582388920119127e-02  -6.7540105092921507e-02  -6.2374866682849764e-02  -6.2423658054023820e-02  -7.2625235191684151e-02  -7.2712815521707594e-02  -7.1254366294076069e-02  -7.1294151706279688e-02  -6.2406572897197851e-02  -6.2362535681621603e-02  -6.1492330722170890e-02  -6.1558175424220429e-02  -5.2335000306801535e-02  -5.2311080289122416e-02  -1.7973312312419540e-02  -1.7965902403795652e-02  -6.1567836136802681e-02  -6.1553433608989759e-02  -7.0860209324289811e-02  -7.0493270555298290e-02  -7.0983906089223392e-02  -7.0582041073207244e-02  -7.0380389161965401e-02  -7.0440732412732507e-02  -6.9460253889772727e-02  -6.9355214773760249e-02  -6.0172049899466395e-02  -6.0235851216822608e-02  -4.9494330128263049e-02  -4.9176085457572134e-02  -7.3164461970960715e-02  -7.3094033775313705e-02  -7.0136113586605806e-02  -7.0199978295291912e-02  -6.3507297943692434e-02  -6.3917606581846850e-02  -6.8768756153183744e-02  -6.8838151116348265e-02  -4.4902966622008204e-02  -2.5017628636961931e-02  -2.5016937218872978e-02  -4.7177751318706454e-02  -2.5696010392081858e-02  -2.5648510919481567e-02  -2.5874657054836814e-02  -2.1384437643318068e-02  -1.6804336509595352e-02  -1.6816251340210413e-02  -6.1383336176884809e-02  -6.1462350755867645e-02  -1.7284541871392868e-02  -1.7293254438459967e-02  -2.5743238574747439e-02  -2.2308353156541123e-02  -2.2372663479292707e-02  -6.1286970308444405e-02  -6.1320863058233976e-02  -1.9066480894270290e-02  -1.9073353217425953e-02  -6.6571195117888296e-02  -6.6676431687685805e-02  -6.6506356131882008e-02  -6.6541738355395980e-02  -7.1025372436004972e-02  -7.1158530140099555e-02  -6.7131426489208640e-02  -6.7121222821477200e-02  -6.2621807316290565e-02  -6.7719211736233395e-02  -6.7670670437316532e-02  -6.5822775829975061e-02  -6.6018442015613063e-02  -6.2278206671866287e-02  -6.0095794138244930e-02  -6.0151350138876708e-02  -6.4530077090230564e-02  -6.4331930746542670e-02  -6.1366868565494934e-02  -6.1433200521313770e-02  -2.0901967231963036e-02  -2.0903531579013188e-02  -6.1143900202471561e-02  -6.1187581895973175e-02  -2.0515022770013842e-02  -2.0458326681393729e-02  -6.0484650115215428e-02  -6.0429661337510258e-02  -6.1518538914490918e-02  -2.4105577850442719e-02  -6.4559836298512974e-02  -6.4589842462037389e-02  -4.8771552319097973e-02  -4.8781185349322846e-02  -5.3017459238240063e-02  -5.3019257200963919e-02  -6.4958916948946219e-02  -6.6859787808017337e-02  -6.5115446209759731e-02  -6.7087791324666107e-02  -6.6887626419243174e-02  -6.6856876822251540e-02  -5.6239637211765024e-02  -5.6290873902039115e-02  -6.8949013410257137e-02  -6.8976710616076742e-02  -6.5022817381149900e-02  -6.5113112197849210e-02  -7.1151929538543560e-02  -7.1218101171447251e-02  -6.5174137862007167e-02  -6.4984650204658642e-02  -6.8647224626682615e-02  -6.8547349550166073e-02  -4.0868482665944887e-02  -4.0900682584904972e-02  -4.2907755471358319e-02  -4.2818896248377980e-02  -4.3572732458550520e-02  -4.3595966606288457e-02  -5.5635989634973924e-02  -5.5564905622594668e-02  -6.0775693470124424e-02  -6.0792796834830964e-02  -6.0887059757931045e-02  -6.0802306455384120e-02  -5.5270538765355808e-02  -5.5545888463256247e-02  -5.9427985636097753e-02  -5.9405325946134437e-02  -2.3404224170912445e-02  -2.3398999181447527e-02  -4.5619227068683224e-02  -4.5833676309169638e-02  -6.3811916530301674e-02  -6.3756240682757884e-02  -5.3039471086715591e-02  -5.30107398068