<?xml version="1.0"?>
<VTKFile type="UnstructuredGrid"  version="0.1"  >
<UnstructuredGrid>
<Piece  NumberOfPoints="1286" NumberOfCells="2474">
<Points>
<DataArray  type="Float64"  NumberOfComponents="3"  format="ascii">0 0 0  0 1 0  1 1 0  1 0 0  1.1 -0.1 0  -0.1 -0.1 0  1.1 1.1 0  -0.1 1.1 0  0.2508918771759036 0.4963699162012166 0  0.4997850782946515 0.4990431656424126 0  0 0.9499999999997918 0  0 0.8999999999995836 0  0 0.8499999999996529 0  0 0.7999999999999998 0  0 0.7500000000003466 0  0 0.7000000000006934 0  0 0.6500000000010401 0  0 0.6000000000013869 0  0 0.5500000000017335 0  0 0.5000000000020587 0  0 0.4500000000018723 0  0 0.4000000000016644 0  0 0.3500000000014564 0  0 0.3000000000012483 0  0 0.2500000000010403 0  0 0.2000000000008322 0  0 0.1500000000006241 0  0 0.100000000000416 0  0 0.05000000000020799 0  0.04999999999989965 0 0  0.09999999999981467 0 0  0.1499999999997036 0 0  0.1999999999995579 0 0  0.2499999999994121 0 0  0.2999999999992664 0 0  0.3499999999991206 0 0  0.3999999999989749 0 0  0.4499999999988292 0 0  0.4999999999986943 0 0  0.5499999999988151 0 0  0.5999999999989468 0 0  0.6499999999990784 0 0  0.69999999999921 0 0  0.7499999999993417 0 0  0.7999999999994734 0 0  0.8499999999996051 0 0  0.8999999999997368 0 0  0.9499999999998684 0 0  1 0.04999999999989965 0  1 0.09999999999981467 0  1 0.1499999999997036 0  1 0.1999999999995579 0  1 0.2499999999994121 0  1 0.2999999999992664 0  1 0.3499999999991206 0  1 0.3999999999989749 0  1 0.4499999999988292 0  1 0.4999999999986943 0  1 0.5499999999988151 0  1 0.5999999999989468 0  1 0.6499999999990784 0  1 0.69999999999921 0  1 0.7499999999993417 0  1 0.7999999999994734 0  1 0.8499999999996051 0  1 0.8999999999997368 0  1 0.9499999999998684 0  0.9499999999997918 1 0  0.8999999999995836 1 0  0.8499999999996529 1 0  0.7999999999999998 1 0  0.7500000000003466 1 0  0.7000000000006934 1 0  0.6500000000010401 1 0  0.6000000000013869 1 0  0.5500000000017335 1 0  0.5000000000020587 1 0  0.4500000000018723 1 0  0.4000000000016644 1 0  0.3500000000014564 1 0  0.3000000000012483 1 0  0.2500000000010403 1 0  0.2000000000008322 1 0  0.1500000000006241 1 0  0.100000000000416 1 0  0.05000000000020799 1 0  -0.1 1.05000000000004 0  -0.1 1.000000000000079 0  -0.1 0.9500000000001624 0  -0.1 0.9000000000003032 0  -0.1 0.850000000000444 0  -0.1 0.8000000000005848 0  -0.1 0.7500000000007256 0  -0.1 0.7000000000008665 0  -0.1 0.6500000000010508 0  -0.1 0.6000000000012352 0  -0.1 0.5500000000014196 0  -0.1 0.500000000001539 0  -0.1 0.4500000000014195 0  -0.1 0.4000000000013 0  -0.1 0.3500000000011588 0  -0.1 0.3000000000010178 0  -0.1 0.2500000000008986 0  -0.1 0.2000000000007579 0  -0.1 0.1500000000006174 0  -0.1 0.1000000000005272 0  -0.1 0.05000000000040083 0  -0.1 2.671196597248127e-13 0  -0.1 -0.0499999999998666 0  -0.0500000000000906 -0.1 0  -1.730560139634463e-13 -0.1 0  0.04999999999975802 -0.1 0  0.09999999999961506 -0.1 0  0.1499999999994613 -0.1 0  0.199999999999302 -0.1 0  0.2499999999991446 -0.1 0  0.2999999999990088 -0.1 0  0.3499999999988296 -0.1 0  0.3999999999986936 -0.1 0  0.4499999999985143 -0.1 0  0.4999999999984002 -0.1 0  0.5499999999985247 -0.1 0  0.5999999999986493 -0.1 0  0.6499999999987955 -0.1 0  0.6999999999989417 -0.1 0  0.7499999999990659 -0.1 0  0.7999999999992116 -0.1 0  0.8499999999993573 -0.1 0  0.8999999999994526 -0.1 0  0.949999999999584 -0.1 0  0.9999999999997226 -0.1 0  1.049999999999861 -0.1 0  1.1 -0.0500000000000906 0  1.1 -1.730560139634463e-13 0  1.1 0.04999999999975802 0  1.1 0.09999999999961506 0  1.1 0.1499999999994613 0  1.1 0.199999999999302 0  1.1 0.2499999999991446 0  1.1 0.2999999999990088 0  1.1 0.3499999999988296 0  1.1 0.3999999999986936 0  1.1 0.4499999999985143 0  1.1 0.4999999999984002 0  1.1 0.5499999999985247 0  1.1 0.5999999999986493 0  1.1 0.6499999999987955 0  1.1 0.6999999999989417 0  1.1 0.7499999999990659 0  1.1 0.7999999999992116 0  1.1 0.8499999999993573 0  1.1 0.8999999999994526 0  1.1 0.949999999999584 0  1.1 0.9999999999997226 0  1.1 1.049999999999861 0  1.05000000000004 1.1 0  1.000000000000079 1.1 0  0.9500000000001624 1.1 0  0.9000000000003032 1.1 0  0.850000000000444 1.1 0  0.8000000000005848 1.1 0  0.7500000000007256 1.1 0  0.7000000000008665 1.1 0  0.6500000000010508 1.1 0  0.6000000000012352 1.1 0  0.5500000000014196 1.1 0  0.500000000001539 1.1 0  0.4500000000014195 1.1 0  0.4000000000013 1.1 0  0.3500000000011588 1.1 0  0.3000000000010178 1.1 0  0.2500000000008986 1.1 0  0.2000000000007579 1.1 0  0.1500000000006174 1.1 0  0.1000000000005272 1.1 0  0.05000000000040083 1.1 0  2.671196597248127e-13 1.1 0  -0.0499999999998666 1.1 0  0.253829138850843 0.4666843715123176 0  0.2604196210855996 0.4381648976656556 0  0.2701675899155496 0.4111135297071453 0  0.2826065973460369 0.3857237265044811 0  0.2972079010783651 0.3622583755024446 0  0.3135885589776534 0.3408675994437677 0  0.3311592481419907 0.3219050088519995 0  0.3514787302042068 0.3038297359123884 0  0.3739288042474943 0.2876379055703412 0  0.3980850651812377 0.2738722792067042 0  0.4238227738776409 0.2628211155379397 0  0.4506998808493625 0.2548605415377217 0  0.4787129877338306 0.2502894583375205 0  0.5076827742257289 0.2495314067236121 0  0.5359786675336985 0.252616212669459 0  0.5635440329513323 0.2592810503383609 0  0.5899721343613714 0.2692182585640112 0  0.6149108675342632 0.2819311463744718 0  0.6384056994237605 0.2972624331126507 0  0.6602059225174971 0.3149455727460816 0  0.6799331178616413 0.334524541625578 0  0.6978651614363991 0.3562464760969921 0  0.7133636760767745 0.3794449835616007 0  0.7263495302997124 0.4041074635615661 0  0.736549907803498 0.4301005038739105 0  0.7437286597062968 0.4572315861063853 0  0.7474859135538892 0.4852434184179103 0  0.7475550445922959 0.5138676141596806 0  0.7439805297718697 0.5416294689754905 0  0.7368201681504123 0.5692143619920631 0  0.726642233193456 0.5953800998623978 0  0.7136190358916693 0.6202237949249357 0  0.6979657353801844 0.6436673864059732 0  0.6800388557933412 0.6653440264394118 0  0.6601515040536065 0.6850172971724345 0  0.6381864490311575 0.702737279079492 0  0.6146784755769484 0.7179766768038044 0  0.5893591890530669 0.730775768092684 0  0.5628948963656545 0.7406133003380033 0  0.5349058386606594 0.74726900996732 0  0.5062422277286822 0.7502593073659017 0  0.4772504545960661 0.7493737594838245 0  0.4489853788522774 0.7446606720166534 0  0.4219102955477144 0.7365756446497395 0  0.3959473768583582 0.7254178294392107 0  0.3713988330805543 0.7114815566777184 0  0.3483038888450055 0.6949095993327699 0  0.3270918688436156 0.6760759506767614 0  0.3080512320809695 0.6552942890690897 0  0.2909947250706487 0.6322040199122632 0  0.2766520794359116 0.6076243248204434 0  0.2651438620027875 0.5814585084527414 0  0.2567904112063649 0.5541017307527728 0  0.2519325284812158 0.5256365583249392 0  0.5015335120448624 0.6290192780211041 0  0.5091968293498123 0.3629719796172904 0  0.6446417844550311 0.4978517940717127 0  0.3494682780337653 0.4976630755490865 0  0.3986247495796744 0.4084286931795495 0  0.3936513611843738 0.5882814522315438 0  0.5902059700455101 0.3929449501432145 0  0.5892518061870836 0.6063284029871326 0  0.4324084018278949 0.6544526557776671 0  0.4848972621573286 0.6905460371999769 0  0.5454986576337292 0.6876808877051974 0  0.4297548635344255 0.3407862879671986 0  0.4870062821213452 0.3066790070531413 0  0.5485681678984476 0.3115721549607059 0  0.6570180200309338 0.5910044057971179 0  0.6574517735950416 0.408873622490437 0  0.3367302498751734 0.5781631133352308 0  0.3394313025512962 0.417113769060484 0  0.3780613943416982 0.64271974119508 0  0.3810903027406595 0.3527642700100567 0  0.5948022344942948 0.6581031468344521 0  0.5956079904847441 0.3414943422917312 0  0.6952853807993691 0.4997630082679943 0  0.6942512608417081 0.5542747679744252 0  0.6942882128330242 0.4459330957171087 0  0.303647208326468 0.4505830955013219 0  0.2928652917410809 0.5029277666873067 0  0.6379453717609038 0.3648317672624757 0  0.6379694349918092 0.6358596397928851 0  0.2996462636406959 0.5537959183793505 0  0.4237364320202668 0.5122492674338145 0  0.4407801214715764 0.6977300618429694 0  0.4427564846279363 0.3011922361034849 0  0.3459206264465267 0.374741479825236 0  0.3424933833750046 0.6215265363417126 0  0.5629795703267472 0.5239021409507036 0  0.5212509128982227 0.4396765121297906 0  0.5200550543056129 0.28380658335975 0  0.5181181056020046 0.7154280084362541 0  0.4675396281991264 0.5749490483108155 0  0.4693803132499706 0.4445830882689016 0  0.3956528805543322 0.6738709605812858 0  0.3983430483640141 0.325131653830698 0  0.6160869261973236 0.4491777972054535 0  0.6144702152259665 0.5478138058028676 0  0.5810372369087246 0.3110735451973944 0  0.5803828468920726 0.6883641074570414 0  0.3823067337927959 0.5356277014603079 0  0.3766023496571381 0.4560321856952761 0  0.4418961471686723 0.4071780871999812 0  0.7128670463652478 0.5291163084704007 0  0.7137405266609356 0.4686974677812191 0  0.5505525724441035 0.6241653622444012 0  0.5535401800571582 0.3741244860681752 0  0.6950548031837516 0.587523859925154 0  0.6946057172682192 0.41155187541858 0  0.4192284787716908 0.6216358034922176 0  0.3039707342725066 0.4148935611721808 0  0.4728586740794252 0.7239132521402758 0  0.474176313743729 0.2754802177470941 0  0.4587743612501903 0.6775040773120702 0  0.4574995185211321 0.3218460845121059 0  0.666968165035569 0.3757592571226695 0  0.6672190999675429 0.6234602777622058 0  0.6280556576955737 0.3333574128589594 0  0.6281359114199487 0.6660182882152907 0  0.2808075055432525 0.4682714455655356 0  0.3045116960042262 0.5844813888730317 0  0.7241321919009468 0.4993611050042575 0  0.51669864922058 0.5635056873520968 0  0.2803607447978589 0.5326112967317097 0  0.3206665984838461 0.3881942066394213 0  0.4550845248786633 0.6193403774711282 0  0.565294215574178 0.2866538364932384 0  0.5638587836006497 0.7129564720993083 0  0.3410367622863608 0.5394185413284797 0  0.3153251899341832 0.5241466653287287 0  0.56602225166
[...]
<PointData  Scalars="state"> 
<DataArray  type="Float64"  Name="state"  format="ascii">0.0000000000000000e+00  0.0000000000000000e+00  0.0000000000000000e+00  0.0000000000000000e+00  0.0000000000000000e+00  0.0000000000000000e+00  0.0000000000000000e+00  0.0000000000000000e+00  -2.8429794859970634e-02  -5.2711638154570740e-03  0.0000000000000000e+00  0.0000000000000000e+00  0.0000000000000000e+00  0.0000000000000000e+00  0.0000000000000000e+00  0.0000000000000000e+00  0.0000000000000000e+00  0.0000000000000000e+00  0.0000000000000000e+00  0.0000000000000000e+00  0.0000000000000000e+00  0.0000000000000000e+00  0.0000000000000000e+00  0.0000000000000000e+00  0.0000000000000000e+00  0.0000000000000000e+00  0.0000000000000000e+00  0.0000000000000000e+00  0.0000000000000000e+00  0.0000000000000000e+00  0.0000000000000000e+00  0.0000000000000000e+00  0.0000000000000000e+00  0.0000000000000000e+00  0.0000000000000000e+00  0.0000000000000000e+00  0.0000000000000000e+00  0.0000000000000000e+00  0.0000000000000000e+00  0.0000000000000000e+00  0.0000000000000000e+00  0.0000000000000000e+00  0.0000000000000000e+00  0.0000000000000000e+00  0.0000000000000000e+00  0.0000000000000000e+00  0.0000000000000000e+00  0.0000000000000000e+00  0.0000000000000000e+00  0.0000000000000000e+00  0.0000000000000000e+00  0.0000000000000000e+00  0.0000000000000000e+00  0.0000000000000000e+00  0.0000000000000000e+00  0.0000000000000000e+00  0.0000000000000000e+00  0.0000000000000000e+00  0.0000000000000000e+00  0.0000000000000000e+00  0.0000000000000000e+00  0.0000000000000000e+00  0.0000000000000000e+00  0.0000000000000000e+00  0.0000000000000000e+00  0.0000000000000000e+00  0.0000000000000000e+00  0.0000000000000000e+00  0.0000000000000000e+00  0.0000000000000000e+00  0.0000000000000000e+00  0.0000000000000000e+00  0.0000000000000000e+00  0.0000000000000000e+00  0.0000000000000000e+00  0.0000000000000000e+00  0.0000000000000000e+00  0.0000000000000000e+00  0.0000000000000000e+00  0.0000000000000000e+00  0.0000000000000000e+00  0.0000000000000000e+00  0.0000000000000000e+00  0.0000000000000000e+00  0.0000000000000000e+00  0.0000000000000000e+00  0.0000000000000000e+00  0.0000000000000000e+00  0.0000000000000000e+00  0.0000000000000000e+00  0.0000000000000000e+00  0.0000000000000000e+00  0.0000000000000000e+00  0.0000000000000000e+00  0.0000000000000000e+00  0.0000000000000000e+00  0.0000000000000000e+00  0.0000000000000000e+00  0.0000000000000000e+00  0.0000000000000000e+00  0.0000000000000000e+00  0.0000000000000000e+00  0.0000000000000000e+00  0.0000000000000000e+00  0.0000000000000000e+00  0.0000000000000000e+00  0.0000000000000000e+00  0.0000000000000000e+00  0.0000000000000000e+00  0.0000000000000000e+00  0.0000000000000000e+00  0.0000000000000000e+00  0.0000000000000000e+00  0.0000000000000000e+00  0.0000000000000000e+00  0.0000000000000000e+00  0.0000000000000000e+00  0.0000000000000000e+00  0.0000000000000000e+00  0.0000000000000000e+00  0.0000000000000000e+00  0.0000000000000000e+00  0.0000000000000000e+00  0.0000000000000000e+00  0.0000000000000000e+00  0.0000000000000000e+00  0.0000000000000000e+00  0.0000000000000000e+00  0.0000000000000000e+00  0.0000000000000000e+00  0.0000000000000000e+00  0.0000000000000000e+00  0.0000000000000000e+00  0.0000000000000000e+00  0.0000000000000000e+00  0.0000000000000000e+00  0.0000000000000000e+00  0.0000000000000000e+00  0.0000000000000000e+00  0.0000000000000000e+00  0.0000000000000000e+00  0.0000000000000000e+00  0.0000000000000000e+00  0.0000000000000000e+00  0.0000000000000000e+00  0.0000000000000000e+00  0.0000000000000000e+00  0.0000000000000000e+00  0.0000000000000000e+00  0.0000000000000000e+00  0.0000000000000000e+00  0.0000000000000000e+00  0.0000000000000000e+00  0.0000000000000000e+00  0.0000000000000000e+00  0.0000000000000000e+00  0.0000000000000000e+00  0.0000000000000000e+00  0.0000000000000000e+00  0.0000000000000000e+00  0.0000000000000000e+00  0.0000000000000000e+00  0.0000000000000000e+00  0.0000000000000000e+00  0.0000000000000000e+00  0.0000000000000000e+00  0.0000000000000000e+00  0.0000000000000000e+00  0.0000000000000000e+00  0.0000000000000000e+00  0.0000000000000000e+00  0.0000000000000000e+00  0.0000000000000000e+00  0.0000000000000000e+00  0.0000000000000000e+00  0.0000000000000000e+00  0.0000000000000000e+00  0.0000000000000000e+00  -2.8346932621784456e-02  -2.8487421732512511e-02  -2.8584356544841028e-02  -2.8717020261298933e-02  -2.8863608322888860e-02  -2.9093200357894585e-02  -2.9073194989218787e-02  -2.9097741660788302e-02  -2.9032736464650485e-02  -2.8812862673855039e-02  -2.8490010007259481e-02  -2.8385851626355613e-02  -2.8333188347581053e-02  -2.8161160834683310e-02  -2.8252133078840259e-02  -2.8461859191063157e-02  -2.8578356433957279e-02  -2.8921972908301178e-02  -2.8991793244907478e-02  -2.9065625397675925e-02  -2.9057936223470637e-02  -2.8846024051742386e-02  -2.8905537418400924e-02  -2.8634524112145166e-02  -2.8248303987991125e-02  -2.8221011712435396e-02  -2.8077105253571537e-02  -2.8071905065250567e-02  -2.8217770686092887e-02  -2.8248584152487422e-02  -2.8636297081391628e-02  -2.8904083723588311e-02  -2.8847455218720883e-02  -2.9053712465666130e-02  -2.9047615594317809e-02  -2.8971983898149298e-02  -2.8897787523822490e-02  -2.8534304184110269e-02  -2.8402986066596570e-02  -2.8177434653690190e-02  -2.8076598675971304e-02  -2.8235854518128687e-02  -2.8278177762139221e-02  -2.8387724961727617e-02  -2.8722812557421682e-02  -2.8964225150335022e-02  -2.9058664564692097e-02  -2.9066597665339342e-02  -2.9122092129487475e-02  -2.9004730965967611e-02  -2.8696774873171044e-02  -2.8588855561495440e-02  -2.8499574129879957e-02  -2.8347313756105347e-02  -1.1910806382133474e-02  -1.2751449908776325e-02  -1.3600935303714227e-02  -1.3949878802408682e-02  -1.2853562615805019e-02  -1.2859343825326193e-02  -1.3281294986608159e-02  -1.3198440421366314e-02  -1.6006561877637947e-02  -1.8519748799591597e-02  -1.8881229180078559e-02  -1.6853055263154473e-02  -1.8956524201438636e-02  -1.9075899171070259e-02  -1.7608486991902744e-02  -1.7647442399011080e-02  -1.7398753930309954e-02  -1.7473475530674704e-02  -1.8242359887286615e-02  -1.8656948300007140e-02  -1.7917146768313238e-02  -1.7980658156689193e-02  -1.9001718016248677e-02  -1.9985555339131374e-02  -1.9991290640657196e-02  -1.9947841058013741e-02  -2.0504816575091570e-02  -1.9262745203612621e-02  -1.9372204176797608e-02  -2.0684741663711415e-02  -7.8469723384161742e-03  -2.0436485159067971e-02  -2.0628859522059159e-02  -2.0000236765979805e-02  -1.9797775340676137e-02  -7.2942730273007610e-03  -7.2039396962306299e-03  -2.1949224830066422e-02  -2.1766662799431395e-02  -8.0613677968463630e-03  -7.1383372017573840e-03  -2.0329701832359017e-02  -2.0383591490433287e-02  -1.1937292751070567e-02  -1.1651462335086057e-02  -2.0719237112347227e-02  -2.0624267039768756e-02  -1.1244280662874698e-02  -1.2158217910275515e-02  -1.0237048637068216e-02  -2.1796005357531709e-02  -2.2017396941151336e-02  -1.2561433479505597e-02  -1.2770803436065457e-02  -2.1908087124883038e-02  -2.1895968072850727e-02  -1.3666034387130746e-02  -2.1785852422426685e-02  -2.2898796115527979e-02  -2.3056921350165439e-02  -1.7485980988038479e-02  -1.7807698613029947e-02  -2.1405936422195664e-02  -2.1382689971115299e-02  -2.1461929088414444e-02  -2.1419576951560031e-02  -2.2518326376849872e-02  -2.1636322911592686e-02  -2.3050027656572710e-02  -6.9385970916320356e-03  -2.2653312806776703e-02  -2.1766116912771437e-02  -1.1792788712938724e-02  -2.3041799830286400e-02  -2.2912993389863748e-02  -1.5478024812039581e-02  -1.7870008497985906e-02  -1.6643839348109243e-02  -1.6530026603774076e-02  -1.5727297939871945e-02  -1.5604529762332092e-02  -1.5917880144057150e-02  -1.5567297115140044e-02  -1.5613170771942858e-02  -1.5661164593187154e-02  -1.5860727716253374e-02  -1.5230459292165167e-02  -1.6757248764016609e-02  -2.1617707545531013e-02  -2.2900846256326136e-02  -2.2774945673051633e-02  -1.5495393748338703e-02  -1.6379435461276775e-02  -2.1961335181211183e-02  -2.1739270159295367e-02  -7.5615723014250307e-03  -1.5899238041230130e-02  -1.5973169128939785e-02  -1.4197493357178516e-02  -2.3387779847546232e-02  -2.3386922056002471e-02  -1.7467533399331006e-02  -2.2298173192115203e-02  -2.2660009083462024e-02  -2.3021406435392033e-02  -2.2982715379649434e-02  -1.6865412822331772e-02  -1.8344075858098125e-02  -1.8528509500428267e-02  -2.4338387338278311e-02  -2.3598200781263380e-02  -2.3800327865128954e-02  -2.3700588578189404e-02  -2.3395727922606229e-02  -2.3559819087869943e-02  -2.3293127235138822e-02  -2.3272295531271147e-02  -1.7259821680336383e-02  -1.8060332904021120e-02  -1.8069103360133690e-02  -1.0567303950638025e-02  -1.7302078665631593e-02  -1.7079484979882875e-02  -1.8207943879444254e-02  -8.4760105763935605e-03  -1.6268103624776042e-02  -1.6217355526090885e-02  -1.3577339924241158e-02  -1.6202494216443170e-02  -1.6374083055897878e-02  -2.3804466663983559e-02  -2.3880840391365340e-02  -2.4273590835479676e-02  -2.3624556875279177e-02  -2.3624464180146066e-02  -1.8137915190481305e-02  -8.9955916029061719e-03  -1.9075534813127640e-02  -1.8486422711391955e-02  -2.0323078741948556e-02  -2.0517584065182004e-02  -2.3774330657630349e-02  -1.5546886360289698e-02  -2.4240689996121390e-02  -2.4088005094729126e-02  -1.9137469412589328e-02  -1.9347317384984093e-02  -9.6141022552147810e-03  -1.0371753396883643e-02  -2.4677772445447471e-02  -2.4617831788848497e-02  -1.5863796834848981e-02  -9.5396403673822499e-03  -8.7904254746853667e-03  -2.0826385653559491e-02  -2.1079324377257617e-02  -1.6830271310529391e-02  -2.4600498203264369e-02  -1.9846903409841358e-02  -1.5183177053235981e-02  -1.5078843788097361e-02  -2.3605100394483495e-02  -6.3984852299058112e-03  -2.3990521287706540e-02  -2.3996130378452891e-02  -1.8386043101691039e-02  -1.8384786477481523e-02  -2.1086228621483086e-02  -2.0943835445219387e-02  -9.5969174084240185e-03  -1.8150379371504981e-02  -1.7970599571192378e-02  -1.4435388152838347e-02  -2.4387626578700802e-02  -2.4481101640153633e-02  -2.4209108151024228e-02  -2.4062687806366612e-02  -2.4657041869656487e-02  -2.4615391494222497e-02  -1.4587847523790734e-02  -1.3299760786999426e-02  -1.8541653988663063e-02  -1.8525581046027622e-02  -2.4155201604449974e-02  -9.6567817604825777e-03  -1.4431888038043818e-02  -1.3028346225508273e-02  -1.8145588164913275e-02  -1.4484337983358735e-02  -1.4577490633984039e-02  -6.3956077018915737e-03  -1.7543603793717572e-02  -1.7733430204577245e-02  -2.3967142308416910e-02  -2.3960358619235043e-02  -2.4313909992694289e-02  -5.0918860853006058e-02  -5.1108911217522812e-02  -5.1124225908567210e-02  -5.1400934336357264e-02  -4.4802095500286715e-02  -4.4279928777623594e-02  -4.6044515140435498e-02  -4.6020102107216437e-02  -4.6410907594715230e-02  -4.6561966061547624e-02  -4.7274036785001902e-02  -4.7267723198556766e-02  -3.9919431570425969e-02  -3.9887025324001672e-02  -3.9603288176159171e-02  -3.9866697403812219e-02  -4.9815451766741424e-02  -4.9395677089544614e-02  -4.9319112239562916e-02  -4.9619263490312260e-02  -4.7042201876512452e-02  -4.6581574825540949e-02  -4.6657741101711246e-02  -4.6738552866503864e-02  -4.2513538332851639e-02  -4.2151760410448894e-02  -4.1319246310766382e-02  -4.2012907138401667e-02  -4.1523479704905171e-02  -4.2453186181084970e-02  -4.3266145747299020e-02  -4.3030335291281398e-02  -3.8738004368606034e-02  -3.1438193687219992e-02  -3.8861136391308233e-02  -3.1592902302694056e-02  -4.2693636626819013e-02  -4.2814891488232164e-02  -3.0611066373742574e-02  -3.0423844312939031e-02  -4.2119792449265961e-02  -4.2518384951931512e-02  -3.7722407808912208e-02  -3.7414875558681122e-02  -4.0720664422799605e-02  -3.8051578280759307e-02  -3.8313135679956166e-02  -4.0114405651214026e-02  -4.0081464485404603e-02  -3.7925042957512513e-02  -3.8279248393514563e-02  -3.7568491825901697e-02  -3.7452699165375303e-02  -4.0227670043473648e-02  -3.1914756898150924e-02  -3.3675522027429308e-02  -3.1280496518145989e-02  -3.1268929604289432e-02  -3.0447687567322638e-02  -2.9818958467313389e-02  -5.0277890989838911e-02  -4.9871199968034130e-02  -5.1434365765432512e-02  -5.1505069091649168e-02  -4.1450121661346824e-02  -4.1050155162059558e-02  -4.0928738138586288e-02  -4.0533137079398096e-02  -5.0397453260034336e-02  -5.0481193439102866e-02  -5.2337707857811888e-02  -5.2205119850092858e-02  -4.2617053945079628e-02  -4.2742885975227324e-02  -3.0805236274581708e-02  -3.1275778397038448e-02  -2.9701407925219334e-02  -2.9325442612533999e-02  -4.0208236781005678e-02  -4.0057205056842668e-02  -2.9187637655665229e-02  -2.9405803632623996e-02  -3.9712748965826251e-02  -4.0154419249928901e-02  -3.7348501933183703e-02  -4.2555932351571027e-02  -3.7125850068551985e-02  -4.2516838870528290e-02  -3.7247794751699745e-02  -3.7190515730895907e-02  -3.6899611933826647e-02  -3.7255366650829999e-02  -3.7397177908739782e-02  -3.7185507451565909e-02  -3.7812523997288454e-02  -3.8173284009770277e-02  -4.1698325628358533e-02  -4.1415304341944063e-02  -4.2613224403836060e-02  -4.2358330231930467e-02  -3.6623150567005325e-02  -3.6891908641962567e-02  -4.2795267156883733e-02  -4.2766537982598031e-02  -3.7267318645013717e-02  -3.6906738648536906e-02  -4.8015130114514581e-02  -4.7637615308988988e-02  -3.7516203716933150e-02  -3.7591303643824035e-02  -3.6107381527235347e-02  -3.6313575283983754e-02  -2.5633350950204661e-02  -2.5831526643246318e-02  -4.9185353861882782e-02  -4.8739038706452353e-02  -3.7170842316224265e-02  -3.7221474802086214e-02  -2.6309643310412082e-02  -2.6411605211456957e-02  -2.5423870126783973e-02  -2.5508038644962698e-02  -2.4444527234477272e-02  -4.4774468372784447e-02  -4.4617637416427020e-02  -4.2820971519405067e-02  -4.2625538564143098e-02  -4.3677273406921444e-02  -4.3860166180015932e-02  -4.1796941681417732e-02  -4.2061637621634659e-02  -5.1471424078024859e-02  -5.1173092491964327e-02  -5.1742545325422461e-02  -5.1606796319476178e-02  -3.6483098447808865e-02  -3.6200753339725132e-02  -4.1515238352282449e-02  -4.2115077496810330e-02  -3.6460108386616237e-02  -3.6861442934134910e-02  -2.5107748097386980e-02  -2.5042410549251132e-02  -2.5224441118563430e-02  -1.3902313004809102e-02  -1.3952718642377801e-02  -1.3929486387752160e-02  -1.3864569120029011e-02  -2.3238776109993892e-02  -2.3404039592073735e-02  -4.7026740402923685e-02  -4.6798829025897333e-02  -4.7124305777096337e-02  -4.7224241349207066e-02  -4.5961066759365135e-02  -4.5875503705816972e-02  -5.2581430792047898e-02  -5.2903776919035916e-02  -4.5140290117812162e-02  -4.4867659787066173e-02  -5.2898845070130096e-02  -5.2944659941007673e-02  -3.5784593090587839e-02  -3.5871963811568319e-02  -2.8517680116073685e-02  -2.8572086887173262e-02  -3.6051093311417509e-02  -3.5725928524208292e-02  -3.4639653817611672e-02  -3.9647334634963845e-02  -3.8933125151625510e-02  -2.2812213982220352e-02  -2.2875821461955933e-02  -4.7717903477282282e-02  -4.7963810080796011e-02  -4.3396106444908364e-02  -4.3593398808000408e-02  -4.6157081175770227e-02  -4.5659779585566565e-02  -4.3149563582844212e-02  -4.3566858233674052e-02  -3.5407782837202778e-02  -3.5122793474515530e-02  -4.1271046409264364e-02  -4.1264596623339131e-02  -4.1734764015174758e-02  -4.2416205475826856e-02  -2.7647954356228351e-02  -2.4102779645774227e-02  -2.4335475887254446e-02  -4.8455504141444707e-02  -4.8632164415211399e-02  -2.3941952831238927e-02  -2.3647512953631052e-02  -2.2740711654466960e-02  -2.2521652676422727e-02  -3.6122888077671056e-02  -4.6828361116845602e-02  -4.6483365157625245e-02  -2.2604208624636378e-02  -2.2407168392821253e-02  -3.5820942860738510e-02  -4.3340931911549703e-02  -3.5794831725765079e-02  -4.3360418792353431e-02  -2.2502083226113186e-02  -2.2668675200986348e-02  -4.1081864179626774e-02  -4.0958161008294344e-02  -4.1167566882902226e-02  -4.1213202010116808e-02  -3.4791695864529557e-02  -3.4719335809602424e-02  -4.7900361383414379e-02  -4.7679601007255802e-02  -3.5327587230120243e-02  -4.2798089296651333e-02  -3.5041771235821653e-02  -4.2265692223621545e-02  -3.8526888955249826e-02  -3.9043855155667932e-02  -1.9077841839594024e-02  -2.0464138765067641e-02  -2.3802112816317722e-02  -2.3841041179078926e-02  -2.1780516458714847e-02  -2.1916596985362514e-02  -4.2528498523983639e-02  -4.2515116368969083e-02  -4.2053130748015935e-02  -4.2570468845562946e-02  -4.2114540224403148e-02  -4.2110231068625111e-02  -2.2351689950042216e-02  -2.2099125997012727e-02  -4.5571201936847196e-02  -4.5611035159465033e-02  -5.0803576181011716e-02  -5.0723761304738067e-02  -4.6724387986500610e-02  -4.6933775495032325e-02  -3.4915451228410208e-02  -3.4584073298928444e-02  -4.8862277082500308e-02  -4.8381025636232027e-02  -5.1435881912679206e-02  -5.1486867215835806e-02  -3.5448157599417919e-02  -3.5287585355789158e-02  -3.4328438853079089e-02  -3.4067294256893213e-02  -3.9596321079226338e-02  -3.9439376782589068e-02  -1.6056035031943128e-02  -1.6011143903572795e-02  -3.4235174534547393e-02  -3.4234892587855489e-02  -4.6140090377532722e-02  -4.4813130556134360e-02  -4.6484714557825574e-02  -4.5058349255277012e-02  -5.0922121160824514e-02  -5.0772302037022266e-02  -5.2938978281722164e-02  -5.2883697254235709e-02  -3.3216567045636435e-02  -3.3007252654717885e-02  -3.7532997669970987e-02  -3.7074378343642668e-02  -4.9460747329526100e-02  -4.9327114484634851e-02  -5.3120909570209283e-02  -5.3345631771892721e-02  -4.4381171129644917e-02  -4.4910604155337014e-02  -4.2550786227661043e-02  -4.1995918860198239e-02  -3.3323743902805139e-02  -1.9484040569876682e-02  -1.9510874874286165e-02  -3.4932448091222069e-02  -2.0102456181401600e-02  -2.0239985775031503e-02  -2.0398829984349335e-02  -1.7068061552866731e-02  -1.5114335048056246e-02  -1.5198183847500232e-02  -3.3682807088467812e-02  -3.3931697849852470e-02  -1.5477104996874559e-02  -1.5559853622166274e-02  -1.9768065236361897e-02  -1.9077521297861093e-02  -1.9259880789031483e-02  -3.3371599006332492e-02  -3.3131218160978727e-02  -1.6310913421531861e-02  -1.6358695884066705e-02  -4.1159073437176640e-02  -4.0789548920489097e-02  -4.3374439560565560e-02  -4.3069251721236344e-02  -5.1119137951628875e-02  -5.1495323542627321e-02  -4.0969214901766055e-02  -4.1128678862269077e-02  -4.2284932732551489e-02  -4.9094395750949371e-02  -4.9175623078784661e-02  -4.6063979372378126e-02  -4.6021985651606721e-02  -4.2093404129183200e-02  -3.2703535854971467e-02  -3.2517469669480686e-02  -4.8039561914998877e-02  -4.7571469007694163e-02  -3.4530979442690617e-02  -3.4295025920062387e-02  -1.6253182928199363e-02  -1.6306676370173381e-02  -3.3711153466809543e-02  -3.3525929736478020e-02  -1.6942639545675407e-02  -1.6752384255100460e-02  -3.3412453595189594e-02  -3.3221339854613390e-02  -4.2350341354317526e-02  -1.8667454694026329e-02  -3.8469388014887550e-02  -3.8177955797341602e-02  -3.5855371963550403e-02  -3.5939961152481187e-02  -3.8535749740863282e-02  -3.8569943851836132e-02  -3.8815957928662506e-02  -4.2323171088621034e-02  -3.9164462064462752e-02  -4.2736483844620123e-02  -5.0056793267024037e-02  -4.9990462525399557e-02  -4.5994126539760420e-02  -4.6248622395729334e-02  -4.2823096735379353e-02  -4.2700802189251853e-02  -3.9357033100358089e-02  -3.9081011313820677e-02  -4.6594999975110872e-02  -4.6066427364759480e-02  -4.8996206838368091e-02  -4.8875530981918630e-02  -4.2374282970155663e-02  -4.2866372944691866e-02  -3.4278941638683946e-02  -3.4529170869900483e-02  -3.6345150313336898e-02  -3.6079918476319237e-02  -3.6558696245232308e-02  -3.6691756492095003e-02  -4.5997450171782236e-02  -4.5743361142116704e-02  -3.2980473133492130e-02  -3.2864150817115516e-02  -3.3503434709565107e-02  -3.3267479998706689e-02  -4.2582356825889581e-02  -4.2911707662728213e-02  -4.2343923262886426e-02  -4.2340811662517741e-02  -1.8322573290092691e-02  -1.8205618953916015e-02  -3.6725116882952352e-02  -3.7076791802635740e-02  -3.7999128130049672e-02  -3.7737135081396755e-02  -4.0870401309069035e-02  -4.06872389312