<?xml version="1.0"?>
<VTKFile type="UnstructuredGrid"  version="0.1"  >
<UnstructuredGrid>
<Piece  NumberOfPoints="1286" NumberOfCells="2474">
<Points>
<DataArray  type="Float64"  NumberOfComponents="3"  format="ascii">0 0 0  0 1 0  1 1 0  1 0 0  1.1 -0.1 0  -0.1 -0.1 0  1.1 1.1 0  -0.1 1.1 0  0.2502278768240972 0.4967003608663568 0  0.5003788393102039 0.4991088300590146 0  0 0.9499999999997918 0  0 0.8999999999995836 0  0 0.8499999999996529 0  0 0.7999999999999998 0  0 0.7500000000003466 0  0 0.7000000000006934 0  0 0.6500000000010401 0  0 0.6000000000013869 0  0 0.5500000000017335 0  0 0.5000000000020587 0  0 0.4500000000018723 0  0 0.4000000000016644 0  0 0.3500000000014564 0  0 0.3000000000012483 0  0 0.2500000000010403 0  0 0.2000000000008322 0  0 0.1500000000006241 0  0 0.100000000000416 0  0 0.05000000000020799 0  0.04999999999989965 0 0  0.09999999999981467 0 0  0.1499999999997036 0 0  0.1999999999995579 0 0  0.2499999999994121 0 0  0.2999999999992664 0 0  0.3499999999991206 0 0  0.3999999999989749 0 0  0.4499999999988292 0 0  0.4999999999986943 0 0  0.5499999999988151 0 0  0.5999999999989468 0 0  0.6499999999990784 0 0  0.69999999999921 0 0  0.7499999999993417 0 0  0.7999999999994734 0 0  0.8499999999996051 0 0  0.8999999999997368 0 0  0.9499999999998684 0 0  1 0.04999999999989965 0  1 0.09999999999981467 0  1 0.1499999999997036 0  1 0.1999999999995579 0  1 0.2499999999994121 0  1 0.2999999999992664 0  1 0.3499999999991206 0  1 0.3999999999989749 0  1 0.4499999999988292 0  1 0.4999999999986943 0  1 0.5499999999988151 0  1 0.5999999999989468 0  1 0.6499999999990784 0  1 0.69999999999921 0  1 0.7499999999993417 0  1 0.7999999999994734 0  1 0.8499999999996051 0  1 0.8999999999997368 0  1 0.9499999999998684 0  0.9499999999997918 1 0  0.8999999999995836 1 0  0.8499999999996529 1 0  0.7999999999999998 1 0  0.7500000000003466 1 0  0.7000000000006934 1 0  0.6500000000010401 1 0  0.6000000000013869 1 0  0.5500000000017335 1 0  0.5000000000020587 1 0  0.4500000000018723 1 0  0.4000000000016644 1 0  0.3500000000014564 1 0  0.3000000000012483 1 0  0.2500000000010403 1 0  0.2000000000008322 1 0  0.1500000000006241 1 0  0.100000000000416 1 0  0.05000000000020799 1 0  -0.1 1.05000000000004 0  -0.1 1.000000000000079 0  -0.1 0.9500000000001624 0  -0.1 0.9000000000003032 0  -0.1 0.850000000000444 0  -0.1 0.8000000000005848 0  -0.1 0.7500000000007256 0  -0.1 0.7000000000008665 0  -0.1 0.6500000000010508 0  -0.1 0.6000000000012352 0  -0.1 0.5500000000014196 0  -0.1 0.500000000001539 0  -0.1 0.4500000000014195 0  -0.1 0.4000000000013 0  -0.1 0.3500000000011588 0  -0.1 0.3000000000010178 0  -0.1 0.2500000000008986 0  -0.1 0.2000000000007579 0  -0.1 0.1500000000006174 0  -0.1 0.1000000000005272 0  -0.1 0.05000000000040083 0  -0.1 2.671196597248127e-13 0  -0.1 -0.0499999999998666 0  -0.0500000000000906 -0.1 0  -1.730560139634463e-13 -0.1 0  0.04999999999975802 -0.1 0  0.09999999999961506 -0.1 0  0.1499999999994613 -0.1 0  0.199999999999302 -0.1 0  0.2499999999991446 -0.1 0  0.2999999999990088 -0.1 0  0.3499999999988296 -0.1 0  0.3999999999986936 -0.1 0  0.4499999999985143 -0.1 0  0.4999999999984002 -0.1 0  0.5499999999985247 -0.1 0  0.5999999999986493 -0.1 0  0.6499999999987955 -0.1 0  0.6999999999989417 -0.1 0  0.7499999999990659 -0.1 0  0.7999999999992116 -0.1 0  0.8499999999993573 -0.1 0  0.8999999999994526 -0.1 0  0.949999999999584 -0.1 0  0.9999999999997226 -0.1 0  1.049999999999861 -0.1 0  1.1 -0.0500000000000906 0  1.1 -1.730560139634463e-13 0  1.1 0.04999999999975802 0  1.1 0.09999999999961506 0  1.1 0.1499999999994613 0  1.1 0.199999999999302 0  1.1 0.2499999999991446 0  1.1 0.2999999999990088 0  1.1 0.3499999999988296 0  1.1 0.3999999999986936 0  1.1 0.4499999999985143 0  1.1 0.4999999999984002 0  1.1 0.5499999999985247 0  1.1 0.5999999999986493 0  1.1 0.6499999999987955 0  1.1 0.6999999999989417 0  1.1 0.7499999999990659 0  1.1 0.7999999999992116 0  1.1 0.8499999999993573 0  1.1 0.8999999999994526 0  1.1 0.949999999999584 0  1.1 0.9999999999997226 0  1.1 1.049999999999861 0  1.05000000000004 1.1 0  1.000000000000079 1.1 0  0.9500000000001624 1.1 0  0.9000000000003032 1.1 0  0.850000000000444 1.1 0  0.8000000000005848 1.1 0  0.7500000000007256 1.1 0  0.7000000000008665 1.1 0  0.6500000000010508 1.1 0  0.6000000000012352 1.1 0  0.5500000000014196 1.1 0  0.500000000001539 1.1 0  0.4500000000014195 1.1 0  0.4000000000013 1.1 0  0.3500000000011588 1.1 0  0.3000000000010178 1.1 0  0.2500000000008986 1.1 0  0.2000000000007579 1.1 0  0.1500000000006174 1.1 0  0.1000000000005272 1.1 0  0.05000000000040083 1.1 0  2.671196597248127e-13 1.1 0  -0.0499999999998666 1.1 0  0.2538409420248218 0.4671164384329735 0  0.2613450455659106 0.4388593254120133 0  0.2719456154559617 0.412167299031315 0  0.2849989800052142 0.3871522537434477 0  0.299912235576918 0.3639255313789813 0  0.3162760797440469 0.3425770881422879 0  0.3335656440736467 0.3233992683840253 0  0.3534762334053644 0.3049140034476602 0  0.375461585625088 0.2881053397073275 0  0.3991504580146109 0.2735217951348851 0  0.4244837494261993 0.2615202429700729 0  0.4511237382581266 0.2525914618318906 0  0.4790854133083667 0.2472792569566821 0  0.5081337627414979 0.2463628941204607 0  0.5364717331638255 0.2499762877738949 0  0.5638880980830384 0.2575526485353484 0  0.5899968368925781 0.2684683398181769 0  0.6145663442859454 0.2820051488040624 0  0.637714627638676 0.297936650631256 0  0.6592782350480538 0.3159515004544072 0  0.678976259965992 0.3356210001916959 0  0.6971117831118882 0.3572088997512096 0  0.7130909544629195 0.3801307110035382 0  0.7268197471449576 0.4044623580316347 0  0.7379143492121752 0.4301630239555213 0  0.7459820184044857 0.4571272187986142 0  0.7503478944682495 0.4851690864019318 0  0.7504019682023405 0.5138657903397186 0  0.7462029707095764 0.5416468702232518 0  0.7381109368750934 0.5690563916608322 0  0.7270134777980408 0.5949151347950643 0  0.7132256922740485 0.6194100376650664 0  0.6970631757588445 0.6425510055156481 0  0.6789118377152263 0.6640675992949451 0  0.6590404427877897 0.6838087026733614 0  0.6372951729142881 0.7018352059874196 0  0.6141194522979133 0.7176428599587767 0  0.5891710964481374 0.7312600298416737 0  0.5630273719396203 0.7420549907207388 0  0.5351977149864589 0.7496379762947147 0  0.5064992920451868 0.75317659207899 0  0.4774366334004816 0.7521452566362907 0  0.4492188398036036 0.7467127676568668 0  0.4223619135602898 0.7377084639728371 0  0.3967525786296351 0.7256964259730211 0  0.3725715306261222 0.71109030864508 0  0.349780105554396 0.6941008407263355 0  0.3287360558028841 0.6751128324673221 0  0.3096612169955864 0.6544010393761914 0  0.2923434494173398 0.6315409079365352 0  0.2775155695746147 0.6072846873488852 0  0.2653687576970555 0.581449411717863 0  0.2563570836654046 0.554311721311083 0  0.2510941198421064 0.5259485474190561 0  0.5019245976590103 0.6294724617690464 0  0.5097479384416355 0.3624681858512834 0  0.6454250864003457 0.4978269944441991 0  0.3501522472829401 0.4979465475727733 0  0.3997242525558851 0.4087084190657952 0  0.3943835036488953 0.5883610812924595 0  0.5904872524414452 0.3929112387089355 0  0.5894119371574054 0.6063015685230598 0  0.4330594205930917 0.6548758131978843 0  0.4852549441627704 0.6917107786482304 0  0.5456088602735604 0.6885082154469189 0  0.4307583679241398 0.340509145779297 0  0.48758507836767 0.3053922566868036 0  0.5488604283712428 0.3106217763362538 0  0.6572167482836165 0.5906389802119379 0  0.6577522275009046 0.4091405688128024 0  0.3374242864564719 0.578118600452836 0  0.3407856855017479 0.4177957081864632 0  0.3790192887572002 0.6426049063536534 0  0.3825662166919832 0.3532214113921262 0  0.5946514441107409 0.6580724030280684 0  0.5956201994665167 0.3413953891303093 0  0.6966787463079199 0.4997241307028961 0  0.6951925188840883 0.5540647665465214 0  0.6953039116820107 0.4460503148304909 0  0.3045613150278173 0.4511832143467319 0  0.2930447206020546 0.5032516091030568 0  0.637801935336422 0.3651907826061365 0  0.6376729434248958 0.6353629087166255 0  0.2999433151245732 0.5538819678224467 0  0.4244363256773667 0.5124116122859893 0  0.4413127591855837 0.6986491971142854 0  0.4435532617796311 0.3002321887066502 0  0.3476946529778556 0.3756306639496063 0  0.3435133441517911 0.6212295079080693 0  0.5634725113354703 0.5239272878122163 0  0.5218233387604928 0.4396077249915844 0  0.5204887726891957 0.2819908976728058 0  0.5183476002054962 0.7170618945880478 0  0.4681087382039116 0.5751680333195515 0  0.4700925646635048 0.4445918489893251 0  0.3965495939739098 0.6739543490384843 0  0.3996389330802436 0.3252196635514574 0  0.616608522589372 0.449225385643312 0  0.6149410206423355 0.5477258734299764 0  0.5810917328964038 0.31058404267641 0  0.5802496828772151 0.6886775262451417 0  0.3829916365697765 0.5357774807793113 0  0.3775380814084422 0.4563748786483405 0  0.4427755684853791 0.4071881120141093 0  0.71447098110541 0.5290272673919982 0  0.7153793971469021 0.468703972811474 0  0.5507751559185059 0.6244143489570873 0  0.553901331183376 0.3738442059231772 0  0.6954183018464869 0.587089033751395 0  0.6950516698193844 0.4118831342305929 0  0.4199377715858448 0.6218354231747182 0  0.3055307706036471 0.4158067733051466 0  0.4731653326303427 0.7257599875459394 0  0.4746960697817621 0.273475844064799 0  0.4592655464743913 0.6783378053331961 0  0.4582704681499211 0.3210467393364477 0  0.6667908777737135 0.3762920593636089 0  0.666918388455918 0.6228009607338729 0  0.627724946270489 0.3337050569643482 0  0.6276356368366918 0.665501432049753 0  0.2812174716447685 0.4687619363176582 0  0.3051317997758911 0.5843607651932076 0  0.7261967134021123 0.4993199026262541 0  0.5171720280289719 0.5636597906132919 0  0.2802751858694381 0.532829172854105 0  0.3225656791902673 0.3892574228999297 0  0.4556523106150165 0.6197005537182758 0  0.5654942748262837 0.2855540520154133 0  0.5638623545496975 0.7138534089895715 0  0.3416083332198951 0.5395566970845069 0  0.3157149300439536 0.5243605304812761 0  0.5662373161868209 
[...]
<PointData  Scalars="state"> 
<DataArray  type="Float64"  Name="state"  format="ascii">0.0000000000000000e+00  0.0000000000000000e+00  0.0000000000000000e+00  0.0000000000000000e+00  0.0000000000000000e+00  0.0000000000000000e+00  0.0000000000000000e+00  0.0000000000000000e+00  -2.8776022809955379e-02  -5.2558028619820998e-03  0.0000000000000000e+00  0.0000000000000000e+00  0.0000000000000000e+00  0.0000000000000000e+00  0.0000000000000000e+00  0.0000000000000000e+00  0.0000000000000000e+00  0.0000000000000000e+00  0.0000000000000000e+00  0.0000000000000000e+00  0.0000000000000000e+00  0.0000000000000000e+00  0.0000000000000000e+00  0.0000000000000000e+00  0.0000000000000000e+00  0.0000000000000000e+00  0.0000000000000000e+00  0.0000000000000000e+00  0.0000000000000000e+00  0.0000000000000000e+00  0.0000000000000000e+00  0.0000000000000000e+00  0.0000000000000000e+00  0.0000000000000000e+00  0.0000000000000000e+00  0.0000000000000000e+00  0.0000000000000000e+00  0.0000000000000000e+00  0.0000000000000000e+00  0.0000000000000000e+00  0.0000000000000000e+00  0.0000000000000000e+00  0.0000000000000000e+00  0.0000000000000000e+00  0.0000000000000000e+00  0.0000000000000000e+00  0.0000000000000000e+00  0.0000000000000000e+00  0.0000000000000000e+00  0.0000000000000000e+00  0.0000000000000000e+00  0.0000000000000000e+00  0.0000000000000000e+00  0.0000000000000000e+00  0.0000000000000000e+00  0.0000000000000000e+00  0.0000000000000000e+00  0.0000000000000000e+00  0.0000000000000000e+00  0.0000000000000000e+00  0.0000000000000000e+00  0.0000000000000000e+00  0.0000000000000000e+00  0.0000000000000000e+00  0.0000000000000000e+00  0.0000000000000000e+00  0.0000000000000000e+00  0.0000000000000000e+00  0.0000000000000000e+00  0.0000000000000000e+00  0.0000000000000000e+00  0.0000000000000000e+00  0.0000000000000000e+00  0.0000000000000000e+00  0.0000000000000000e+00  0.0000000000000000e+00  0.0000000000000000e+00  0.0000000000000000e+00  0.0000000000000000e+00  0.0000000000000000e+00  0.0000000000000000e+00  0.0000000000000000e+00  0.0000000000000000e+00  0.0000000000000000e+00  0.0000000000000000e+00  0.0000000000000000e+00  0.0000000000000000e+00  0.0000000000000000e+00  0.0000000000000000e+00  0.0000000000000000e+00  0.0000000000000000e+00  0.0000000000000000e+00  0.0000000000000000e+00  0.0000000000000000e+00  0.0000000000000000e+00  0.0000000000000000e+00  0.0000000000000000e+00  0.0000000000000000e+00  0.0000000000000000e+00  0.0000000000000000e+00  0.0000000000000000e+00  0.0000000000000000e+00  0.0000000000000000e+00  0.0000000000000000e+00  0.0000000000000000e+00  0.0000000000000000e+00  0.0000000000000000e+00  0.0000000000000000e+00  0.0000000000000000e+00  0.0000000000000000e+00  0.0000000000000000e+00  0.0000000000000000e+00  0.0000000000000000e+00  0.0000000000000000e+00  0.0000000000000000e+00  0.0000000000000000e+00  0.0000000000000000e+00  0.0000000000000000e+00  0.0000000000000000e+00  0.0000000000000000e+00  0.0000000000000000e+00  0.0000000000000000e+00  0.0000000000000000e+00  0.0000000000000000e+00  0.0000000000000000e+00  0.0000000000000000e+00  0.0000000000000000e+00  0.0000000000000000e+00  0.0000000000000000e+00  0.0000000000000000e+00  0.0000000000000000e+00  0.0000000000000000e+00  0.0000000000000000e+00  0.0000000000000000e+00  0.0000000000000000e+00  0.0000000000000000e+00  0.0000000000000000e+00  0.0000000000000000e+00  0.0000000000000000e+00  0.0000000000000000e+00  0.0000000000000000e+00  0.0000000000000000e+00  0.0000000000000000e+00  0.0000000000000000e+00  0.0000000000000000e+00  0.0000000000000000e+00  0.0000000000000000e+00  0.0000000000000000e+00  0.0000000000000000e+00  0.0000000000000000e+00  0.0000000000000000e+00  0.0000000000000000e+00  0.0000000000000000e+00  0.0000000000000000e+00  0.0000000000000000e+00  0.0000000000000000e+00  0.0000000000000000e+00  0.0000000000000000e+00  0.0000000000000000e+00  0.0000000000000000e+00  0.0000000000000000e+00  0.0000000000000000e+00  0.0000000000000000e+00  0.0000000000000000e+00  0.0000000000000000e+00  0.0000000000000000e+00  0.0000000000000000e+00  0.0000000000000000e+00  0.0000000000000000e+00  0.0000000000000000e+00  0.0000000000000000e+00  0.0000000000000000e+00  0.0000000000000000e+00  0.0000000000000000e+00  0.0000000000000000e+00  0.0000000000000000e+00  0.0000000000000000e+00  0.0000000000000000e+00  -2.8615381766306246e-02  -2.8632540691977803e-02  -2.8591488862954241e-02  -2.8608299027547131e-02  -2.8675486348802074e-02  -2.8878787248394728e-02  -2.8888945363291549e-02  -2.8966336392928779e-02  -2.8976531311912589e-02  -2.8842521127417323e-02  -2.8610088697861521e-02  -2.8591569235869300e-02  -2.8597257923505467e-02  -2.8427377953656213e-02  -2.8440215345898578e-02  -2.8527727592505304e-02  -2.8513848324710305e-02  -2.8732350297811324e-02  -2.8703346776127320e-02  -2.8718063472115724e-02  -2.8692138993970575e-02  -2.8513583972392873e-02  -2.8645231307798127e-02  -2.8475407530119873e-02  -2.8205101998817990e-02  -2.8286950460414392e-02  -2.8221011020685961e-02  -2.8216547636582011e-02  -2.8287761466261829e-02  -2.8207390840165988e-02  -2.8479111767097252e-02  -2.8645730881905994e-02  -2.8513517312485866e-02  -2.8682929993573490e-02  -2.8692492870977776e-02  -2.8671427135416979e-02  -2.8688810715227001e-02  -2.8447642613822051e-02  -2.8439428729333194e-02  -2.8332726237439546e-02  -2.8304813106750218e-02  -2.8451172896510276e-02  -2.8421051678210529e-02  -2.8432209847160085e-02  -2.8671565586095793e-02  -2.8835050429367404e-02  -2.8880436070737311e-02  -2.8884022811845097e-02  -2.8978705040394490e-02  -2.8940156308639456e-02  -2.8741151584246852e-02  -2.8754920317285215e-02  -2.8782014280443705e-02  -2.8703143732266151e-02  -1.1886144168423301e-02  -1.2743566849813891e-02  -1.3522831234852990e-02  -1.4040483921871507e-02  -1.2883521565662973e-02  -1.2883468723097806e-02  -1.3196748305161354e-02  -1.3109199968280338e-02  -1.6005421668213556e-02  -1.8550000046533999e-02  -1.8859867556751220e-02  -1.6878901376203920e-02  -1.9021145213706014e-02  -1.9072690915754285e-02  -1.7479496745966223e-02  -1.7519769237519828e-02  -1.7459434549203411e-02  -1.7506052236053071e-02  -1.8219596910726395e-02  -1.8644451173244515e-02  -1.7803595369435415e-02  -1.7876708890667680e-02  -1.8964043533370480e-02  -1.9911077753545323e-02  -1.9917948014014083e-02  -2.0052342082741585e-02  -2.0681581543209499e-02  -1.9098001692156513e-02  -1.9201273602416222e-02  -2.0824889906767081e-02  -7.8786306584652382e-03  -2.0459896992909496e-02  -2.0695578946597581e-02  -1.9969241396880257e-02  -1.9790270711908715e-02  -7.2361605945863569e-03  -7.1744187172070742e-03  -2.2038589531477162e-02  -2.1825523207074694e-02  -8.0571794806390019e-03  -7.1439179876063904e-03  -2.0300215516288789e-02  -2.0388486344735782e-02  -1.1850782546662199e-02  -1.1565190685652873e-02  -2.0652179732475712e-02  -2.0541236425526337e-02  -1.1299537145939844e-02  -1.2215450399121783e-02  -1.0255444694202673e-02  -2.1781203052338768e-02  -2.2002389077097066e-02  -1.2502362124463609e-02  -1.2720580467815478e-02  -2.1774417088940803e-02  -2.1760814949631602e-02  -1.3668013685060492e-02  -2.1813643692822657e-02  -2.2992686543138435e-02  -2.3193389478902642e-02  -1.7501364409201133e-02  -1.7854657677216376e-02  -2.1211434088101527e-02  -2.1186812240644094e-02  -2.1283048888778192e-02  -2.1232293965637021e-02  -2.2696607009266147e-02  -2.1721330332255373e-02  -2.3076404687861030e-02  -6.9059552656766734e-03  -2.2858339595431994e-02  -2.1735394195807091e-02  -1.1790230828569188e-02  -2.3037484082727242e-02  -2.2887917097592195e-02  -1.5570102878983595e-02  -1.8002922729264834e-02  -1.6590067688734514e-02  -1.6463280202661922e-02  -1.5806435104586961e-02  -1.5594789995004032e-02  -1.5931676731172174e-02  -1.5444317864777573e-02  -1.5493192854149018e-02  -1.5688821090405033e-02  -1.5880117682118170e-02  -1.5141286966300094e-02  -1.6689540425308420e-02  -2.1640228219231894e-02  -2.2928818999777785e-02  -2.2753024612403926e-02  -1.5405733222028201e-02  -1.6308078211369096e-02  -2.1900809459009941e-02  -2.1690206457414124e-02  -7.5031396788781827e-03  -1.5782078443503836e-02  -1.5862232360481978e-02  -1.4216512576987635e-02  -2.3305958949464935e-02  -2.3303503582897470e-02  -1.7589672692714546e-02  -2.2231427285373372e-02  -2.2612791332571807e-02  -2.2880679251353057e-02  -2.2827984203565348e-02  -1.6853479947187271e-02  -1.8357463926285750e-02  -1.8568334769289152e-02  -2.4597269990968486e-02  -2.3694553013626204e-02  -2.3956598950135976e-02  -2.3820088048997556e-02  -2.3457977283701848e-02  -2.3673101516802224e-02  -2.3054481579636129e-02  -2.3028112354408967e-02  -1.7269680362997385e-02  -1.7954765564853769e-02  -1.7965583751868755e-02  -1.0576327591147914e-02  -1.7301675576639336e-02  -1.7081620680966164e-02  -1.8272615647201125e-02  -8.5099562341482901e-03  -1.6252111233795236e-02  -1.6182880417257739e-02  -1.3595705998410906e-02  -1.6208611527573545e-02  -1.6406536363952839e-02  -2.3855946065524596e-02  -2.3961380743410393e-02  -2.4456767326136528e-02  -2.3419177445823825e-02  -2.3418732694352559e-02  -1.8238752769151791e-02  -8.9900463821366936e-03  -1.9023541411295863e-02  -1.8431728785459157e-02  -2.0369303242980155e-02  -2.0602597482758698e-02  -2.3675574333129504e-02  -1.5545944215879149e-02  -2.4315371203673025e-02  -2.4104295271745440e-02  -1.9136447254988798e-02  -1.9384772785948828e-02  -9.5455644934211523e-03  -1.0428707136965077e-02  -2.4725115131352306e-02  -2.4664656868427320e-02  -1.5872584523390302e-02  -9.4771583091201733e-03  -8.8124860095033994e-03  -2.0888784919964189e-02  -2.1177332560747747e-02  -1.6769962809340226e-02  -2.4845428489162758e-02  -1.9997013875691520e-02  -1.5101072318503179e-02  -1.4989121683040580e-02  -2.3560187029601849e-02  -6.4107026061837437e-03  -2.3963349710422042e-02  -2.3967105132677746e-02  -1.8234288022001673e-02  -1.8230200872296324e-02  -2.1127695445395493e-02  -2.0959968318804909e-02  -9.5230363103721762e-03  -1.8154358473930803e-02  -1.7998796546865592e-02  -1.4434277483931814e-02  -2.4498696486223111e-02  -2.4625486669095514e-02  -2.4175745870274670e-02  -2.3984987783026095e-02  -2.4567112085063632e-02  -2.4506682308226006e-02  -1.4483841974389176e-02  -1.3205388261847343e-02  -1.8401475041857199e-02  -1.8377719553574305e-02  -2.4284737177635938e-02  -9.6247032700522359e-03  -1.4327164291611535e-02  -1.2932883610316501e-02  -1.8249607773849031e-02  -1.4538715504247924e-02  -1.4619627512206182e-02  -6.3991190605098107e-03  -1.7464960330064734e-02  -1.7656234613416307e-02  -2.3713274343913904e-02  -2.3703103921276048e-02  -2.4257735772622708e-02  -5.0887310221028277e-02  -5.1108487162493020e-02  -5.1240882405092822e-02  -5.1638450231341816e-02  -4.5093834136497146e-02  -4.4429985788879002e-02  -4.5943351711057456e-02  -4.5884464984608034e-02  -4.6282335813514368e-02  -4.6453629972561646e-02  -4.7304837348135786e-02  -4.7236817602508183e-02  -3.9684875902141079e-02  -3.9645041689302045e-02  -3.9327119223711154e-02  -4.0023768752595563e-02  -4.9755172988014622e-02  -4.9368154026154201e-02  -4.9490792708031320e-02  -4.9944020643699981e-02  -4.6948044864483653e-02  -4.6510948398407102e-02  -4.6826298346827055e-02  -4.6807328535222251e-02  -4.2770712846204255e-02  -4.2317170944096594e-02  -4.1104066021197302e-02  -4.1885472891664798e-02  -4.1293773942936894e-02  -4.2302906610523244e-02  -4.3057518736708510e-02  -4.2835403732434371e-02  -3.8765798023192612e-02  -3.1483654890787929e-02  -3.8950660410295386e-02  -3.1689486411750407e-02  -4.2640183241805386e-02  -4.2719468091322349e-02  -3.0612898868456175e-02  -3.0412286509296619e-02  -4.2281835652733663e-02  -4.2789295498393283e-02  -3.7698611519471882e-02  -3.7372582856510975e-02  -4.0912364346665946e-02  -3.8007277658578024e-02  -3.8294745036987501e-02  -3.9942538447421072e-02  -3.9899429317795089e-02  -3.8032695812962806e-02  -3.8492832319270379e-02  -3.7383183100633224e-02  -3.7242469395500882e-02  -3.9961631722352939e-02  -3.1748007413923918e-02  -3.3518430216750265e-02  -3.1191420955518669e-02  -3.1161603122961089e-02  -3.0544700355413613e-02  -2.9981001094507260e-02  -5.0587378062522448e-02  -5.0029620268263728e-02  -5.1379056048290933e-02  -5.1479353793137811e-02  -4.1328072804383401e-02  -4.0909179811939048e-02  -4.0822065952795146e-02  -4.0404242666347526e-02  -5.0338723634883689e-02  -5.0458436622854076e-02  -5.2528587620329047e-02  -5.2288061086128317e-02  -4.2706733912744509e-02  -4.2929778040644455e-02  -3.0716317041338446e-02  -3.1200439439972871e-02  -2.9886218429101937e-02  -2.9417777785540201e-02  -4.0195658112468974e-02  -4.0117108440196572e-02  -2.9080437208586659e-02  -2.9323205121963895e-02  -3.9574555627124967e-02  -4.0001088673497415e-02  -3.7167535495967907e-02  -4.2277745698490604e-02  -3.6955971539272200e-02  -4.2240956096597296e-02  -3.7259323022174454e-02  -3.7157333855212304e-02  -3.6796400631301990e-02  -3.7144527147156679e-02  -3.7500575861232247e-02  -3.7252803440804665e-02  -3.7991990319569242e-02  -3.8403454981941226e-02  -4.1883553554748730e-02  -4.1507675098522635e-02  -4.2612933924965672e-02  -4.2333637269499853e-02  -3.6837495986031567e-02  -3.7126134865423620e-02  -4.2637331129036352e-02  -4.2629697011139764e-02  -3.7085813150108560e-02  -3.6734882576932582e-02  -4.7916228951752828e-02  -4.7571975533432537e-02  -3.7475977750612052e-02  -3.7512480492056056e-02  -3.6016230953318525e-02  -3.6228127981089847e-02  -2.5617979464976823e-02  -2.5827656562464094e-02  -4.9526750216337664e-02  -4.8917115733622056e-02  -3.7220993218048774e-02  -3.7197082020533595e-02  -2.6135775780230304e-02  -2.6249118769516893e-02  -2.5445145671466090e-02  -2.5566167948950676e-02  -2.4282706425461289e-02  -4.4571751176881225e-02  -4.4443669140846527e-02  -4.2964672264177280e-02  -4.2690613152270719e-02  -4.3464260209543977e-02  -4.3659445498626777e-02  -4.1774120613262279e-02  -4.2060211007949724e-02  -5.1419506535309967e-02  -5.1153932345016605e-02  -5.2008416176093752e-02  -5.1740259718563636e-02  -3.6331433697310109e-02  -3.6062069451298931e-02  -4.1654254742968071e-02  -4.2342406640160549e-02  -3.6344512858909044e-02  -3.6740181080637695e-02  -2.5206836378140720e-02  -2.5028993577241899e-02  -2.5224309755642538e-02  -1.3916398508520266e-02  -1.3982721977723397e-02  -1.3930496734474211e-02  -1.3861119070876664e-02  -2.3283958081439810e-02  -2.3493349619701152e-02  -4.6890301342728466e-02  -4.6683360226794895e-02  -4.7195451556225489e-02  -4.7222215152929028e-02  -4.6043736889432335e-02  -4.5887526572955625e-02  -5.2738003429066552e-02  -5.3209069437839866e-02  -4.5088904670629100e-02  -4.4793813615106079e-02  -5.2891467907391243e-02  -5.2901273693902240e-02  -3.5816419715393066e-02  -3.5842904446338558e-02  -2.8355706803531201e-02  -2.8411914163494340e-02  -3.5854936623399072e-02  -3.5531849473884485e-02  -3.4527058956028839e-02  -3.9395876945958350e-02  -3.8687956000080757e-02  -2.2808189225966929e-02  -2.2902412011306408e-02  -4.7680728770452943e-02  -4.7952764545760605e-02  -4.3313842691030301e-02  -4.3543502143124191e-02  -4.6476981601473656e-02  -4.5830719869522536e-02  -4.3285934798953880e-02  -4.3837112669148158e-02  -3.5537073236317801e-02  -3.5251742980260833e-02  -4.1030553029204477e-02  -4.1005149508128176e-02  -4.1901545466090422e-02  -4.2639204947080893e-02  -2.7464640798988367e-02  -2.4049838344571167e-02  -2.4301712613888318e-02  -4.8522955244581459e-02  -4.8792032382998243e-02  -2.3913952772040885e-02  -2.3608203857682232e-02  -2.2854700624314425e-02  -2.2579507894548632e-02  -3.6353014991612524e-02  -4.7069740283303671e-02  -4.6604754400782718e-02  -2.2597428808344717e-02  -2.2386095350403198e-02  -3.5837314272696472e-02  -4.3500834040881883e-02  -3.5756228503775467e-02  -4.3424363297343123e-02  -2.2380860774053778e-02  -2.2565853807667267e-02  -4.0854133170247359e-02  -4.0735966317624661e-02  -4.1025725088338960e-02  -4.1051208220573232e-02  -3.4783670551079011e-02  -3.4685887614102948e-02  -4.7892801671645190e-02  -4.7640870029261401e-02  -3.5100154939033158e-02  -4.2673834739824258e-02  -3.4818489785154262e-02  -4.2157334849159955e-02  -3.8381463611402156e-02  -3.8912405605463378e-02  -1.9011463297050103e-02  -2.0377718206136968e-02  -2.3748606976962888e-02  -2.3808642881167751e-02  -2.1772253474132482e-02  -2.1916938275413328e-02  -4.2306196953765002e-02  -4.2297790048833252e-02  -4.1952288833548380e-02  -4.2448085586185166e-02  -4.2050571066601955e-02  -4.2011084293675741e-02  -2.2484046444122375e-02  -2.2165325143977784e-02  -4.5522051105126998e-02  -4.5519163343377106e-02  -5.0728927002071648e-02  -5.0677607218192540e-02  -4.6612638339903270e-02  -4.6788899916991325e-02  -3.4835610444253665e-02  -3.4506028979282961e-02  -4.8798302568644404e-02  -4.8345694987115252e-02  -5.1505189884774434e-02  -5.1658957561942637e-02  -3.5465272325702291e-02  -3.5285079445375636e-02  -3.4147507876448102e-02  -3.3893667968280909e-02  -3.9466894921497644e-02  -3.9279442082854589e-02  -1.6087452019434942e-02  -1.6023309091897739e-02  -3.4261572564041137e-02  -3.4186999409421048e-02  -4.6306645142275532e-02  -4.4950475348531971e-02  -4.6792049357059329e-02  -4.5316001058266560e-02  -5.0851136808876332e-02  -5.0738174138647250e-02  -5.2932796340529019e-02  -5.2844478776796933e-02  -3.3017029782084414e-02  -3.2803420119641581e-02  -3.7761069920700691e-02  -3.7193139546034773e-02  -4.9732582346874832e-02  -4.9466067280688510e-02  -5.3241361073884087e-02  -5.3592850729968021e-02  -4.4534898464532610e-02  -4.5193970911005389e-02  -4.2433459122023419e-02  -4.1894817922224846e-02  -3.3439636081796870e-02  -1.9395077529106873e-02  -1.9417951206256598e-02  -3.5092809777054965e-02  -2.0163799800246063e-02  -2.0357984037697993e-02  -2.0278360432056615e-02  -1.6971564786454611e-02  -1.5110093601512296e-02  -1.5199562048412859e-02  -3.3916300311668937e-02  -3.4150649015670755e-02  -1.5498994245171540e-02  -1.5603268177936393e-02  -1.9832240479984550e-02  -1.9058295446460108e-02  -1.9249238026547575e-02  -3.3376062316101018e-02  -3.3126752709868396e-02  -1.6315602022008990e-02  -1.6385370802516966e-02  -4.0985543467562099e-02  -4.0631748282715381e-02  -4.3177526728969906e-02  -4.2896631937749244e-02  -5.1292896256170034e-02  -5.1829335522082617e-02  -4.0980836164308324e-02  -4.1082756969927067e-02  -4.2450455328900905e-02  -4.9032437398721686e-02  -4.9077280219326364e-02  -4.5887713993042568e-02  -4.5862554153982708e-02  -4.1789401435273398e-02  -3.2570026519650533e-02  -3.2391222732379633e-02  -4.8356303086718448e-02  -4.7733484645305385e-02  -3.4288234010175826e-02  -3.4053622928698658e-02  -1.6154447181660120e-02  -1.6211500219975777e-02  -3.3613952612011923e-02  -3.3439494442598562e-02  -1.6905022010605925e-02  -1.6706056383125879e-02  -3.3435069004035464e-02  -3.3281616446564764e-02  -4.2546115667926855e-02  -1.8755576945313851e-02  -3.8319788241906551e-02  -3.8035932532170670e-02  -3.5625662522926427e-02  -3.5725398483039010e-02  -3.8343158654478016e-02  -3.8373462126810143e-02  -3.9002150865162732e-02  -4.2492431832045069e-02  -3.9408572007276918e-02  -4.3016180366154469e-02  -5.0176149862815260e-02  -5.0023855262896592e-02  -4.6086464447212282e-02  -4.6439064378880526e-02  -4.2846592528964667e-02  -4.2807874952164107e-02  -3.9161808237092428e-02  -3.8898836616176324e-02  -4.6509828975694091e-02  -4.6008375974191142e-02  -4.8935832404164957e-02  -4.8789985705942236e-02  -4.2260951483456315e-02  -4.2735742227409175e-02  -3.4253167963124373e-02  -3.4524183144926543e-02  -3.6337738235709939e-02  -3.6055019707328911e-02  -3.6597079211857855e-02  -3.6789671801156505e-02  -4.5998386872818875e-02  -4.5718626259408035e-02  -3.2919843712817136e-02  -3.2809908445306679e-02  -3.3645187158367611e-02  -3.3445096615625433e-02  -4.2474758211210328e-02  -4.2823067231904391e-02  -4.2137782542314678e-02  -4.2108611229952124e-02  -1.8217953780918682e-02  -1.8088409908287854e-02  -3.6659396806009499e-02  -3.7028701576607502e-02  -3.7787865275260478e-02  -3.7534374338790824e-02  -4.0784415494236288e-02  -4.05696976113