<?xml version="1.0"?>
<VTKFile type="UnstructuredGrid"  version="0.1"  >
<UnstructuredGrid>
<Piece  NumberOfPoints="1286" NumberOfCells="2474">
<Points>
<DataArray  type="Float64"  NumberOfComponents="3"  format="ascii">0 0 0  0 1 0  1 1 0  1 0 0  1.1 -0.1 0  -0.1 -0.1 0  1.1 1.1 0  -0.1 1.1 0  0.25103262342385 0.4963180189151127 0  0.4997336137465916 0.4990391628955625 0  0 0.9499999999997918 0  0 0.8999999999995836 0  0 0.8499999999996529 0  0 0.7999999999999998 0  0 0.7500000000003466 0  0 0.7000000000006934 0  0 0.6500000000010401 0  0 0.6000000000013869 0  0 0.5500000000017335 0  0 0.5000000000020587 0  0 0.4500000000018723 0  0 0.4000000000016644 0  0 0.3500000000014564 0  0 0.3000000000012483 0  0 0.2500000000010403 0  0 0.2000000000008322 0  0 0.1500000000006241 0  0 0.100000000000416 0  0 0.05000000000020799 0  0.04999999999989965 0 0  0.09999999999981467 0 0  0.1499999999997036 0 0  0.1999999999995579 0 0  0.2499999999994121 0 0  0.2999999999992664 0 0  0.3499999999991206 0 0  0.3999999999989749 0 0  0.4499999999988292 0 0  0.4999999999986943 0 0  0.5499999999988151 0 0  0.5999999999989468 0 0  0.6499999999990784 0 0  0.69999999999921 0 0  0.7499999999993417 0 0  0.7999999999994734 0 0  0.8499999999996051 0 0  0.8999999999997368 0 0  0.9499999999998684 0 0  1 0.04999999999989965 0  1 0.09999999999981467 0  1 0.1499999999997036 0  1 0.1999999999995579 0  1 0.2499999999994121 0  1 0.2999999999992664 0  1 0.3499999999991206 0  1 0.3999999999989749 0  1 0.4499999999988292 0  1 0.4999999999986943 0  1 0.5499999999988151 0  1 0.5999999999989468 0  1 0.6499999999990784 0  1 0.69999999999921 0  1 0.7499999999993417 0  1 0.7999999999994734 0  1 0.8499999999996051 0  1 0.8999999999997368 0  1 0.9499999999998684 0  0.9499999999997918 1 0  0.8999999999995836 1 0  0.8499999999996529 1 0  0.7999999999999998 1 0  0.7500000000003466 1 0  0.7000000000006934 1 0  0.6500000000010401 1 0  0.6000000000013869 1 0  0.5500000000017335 1 0  0.5000000000020587 1 0  0.4500000000018723 1 0  0.4000000000016644 1 0  0.3500000000014564 1 0  0.3000000000012483 1 0  0.2500000000010403 1 0  0.2000000000008322 1 0  0.1500000000006241 1 0  0.100000000000416 1 0  0.05000000000020799 1 0  -0.1 1.05000000000004 0  -0.1 1.000000000000079 0  -0.1 0.9500000000001624 0  -0.1 0.9000000000003032 0  -0.1 0.850000000000444 0  -0.1 0.8000000000005848 0  -0.1 0.7500000000007256 0  -0.1 0.7000000000008665 0  -0.1 0.6500000000010508 0  -0.1 0.6000000000012352 0  -0.1 0.5500000000014196 0  -0.1 0.500000000001539 0  -0.1 0.4500000000014195 0  -0.1 0.4000000000013 0  -0.1 0.3500000000011588 0  -0.1 0.3000000000010178 0  -0.1 0.2500000000008986 0  -0.1 0.2000000000007579 0  -0.1 0.1500000000006174 0  -0.1 0.1000000000005272 0  -0.1 0.05000000000040083 0  -0.1 2.671196597248127e-13 0  -0.1 -0.0499999999998666 0  -0.0500000000000906 -0.1 0  -1.730560139634463e-13 -0.1 0  0.04999999999975802 -0.1 0  0.09999999999961506 -0.1 0  0.1499999999994613 -0.1 0  0.199999999999302 -0.1 0  0.2499999999991446 -0.1 0  0.2999999999990088 -0.1 0  0.3499999999988296 -0.1 0  0.3999999999986936 -0.1 0  0.4499999999985143 -0.1 0  0.4999999999984002 -0.1 0  0.5499999999985247 -0.1 0  0.5999999999986493 -0.1 0  0.6499999999987955 -0.1 0  0.6999999999989417 -0.1 0  0.7499999999990659 -0.1 0  0.7999999999992116 -0.1 0  0.8499999999993573 -0.1 0  0.8999999999994526 -0.1 0  0.949999999999584 -0.1 0  0.9999999999997226 -0.1 0  1.049999999999861 -0.1 0  1.1 -0.0500000000000906 0  1.1 -1.730560139634463e-13 0  1.1 0.04999999999975802 0  1.1 0.09999999999961506 0  1.1 0.1499999999994613 0  1.1 0.199999999999302 0  1.1 0.2499999999991446 0  1.1 0.2999999999990088 0  1.1 0.3499999999988296 0  1.1 0.3999999999986936 0  1.1 0.4499999999985143 0  1.1 0.4999999999984002 0  1.1 0.5499999999985247 0  1.1 0.5999999999986493 0  1.1 0.6499999999987955 0  1.1 0.6999999999989417 0  1.1 0.7499999999990659 0  1.1 0.7999999999992116 0  1.1 0.8499999999993573 0  1.1 0.8999999999994526 0  1.1 0.949999999999584 0  1.1 0.9999999999997226 0  1.1 1.049999999999861 0  1.05000000000004 1.1 0  1.000000000000079 1.1 0  0.9500000000001624 1.1 0  0.9000000000003032 1.1 0  0.850000000000444 1.1 0  0.8000000000005848 1.1 0  0.7500000000007256 1.1 0  0.7000000000008665 1.1 0  0.6500000000010508 1.1 0  0.6000000000012352 1.1 0  0.5500000000014196 1.1 0  0.500000000001539 1.1 0  0.4500000000014195 1.1 0  0.4000000000013 1.1 0  0.3500000000011588 1.1 0  0.3000000000010178 1.1 0  0.2500000000008986 1.1 0  0.2000000000007579 1.1 0  0.1500000000006174 1.1 0  0.1000000000005272 1.1 0  0.05000000000040083 1.1 0  2.671196597248127e-13 1.1 0  -0.0499999999998666 1.1 0  0.2538646827008309 0.466621238638137 0  0.2603099638572173 0.4380653657070329 0  0.2699186647442399 0.4109602549772944 0  0.2822562232650138 0.3855094441430407 0  0.2968049207830445 0.362005908152804 0  0.3131876606792617 0.3406066015077234 0  0.3308021453145094 0.321675209624765 0  0.3511914990767649 0.30367036221801 0  0.3737207400468675 0.287587947498231 0  0.3979541271926682 0.2739645260684028 0  0.4237557320793028 0.2630716755225269 0  0.4506654782766509 0.2552628364353004 0  0.4786825313405666 0.2507981313467765 0  0.5076402419106548 0.2500569168965842 0  0.5359286807493973 0.2530589230972005 0  0.5635172038568935 0.2595780373394005 0  0.5899989865856079 0.2693513107762913 0  0.6150031255921258 0.2819197322156872 0  0.6385625438117793 0.2971437326617787 0  0.6604103770071504 0.3147681888060395 0  0.6801471736447855 0.3343317673734518 0  0.6980481419919567 0.3560798311703689 0  0.7134669284743341 0.3793284792116514 0  0.7263290494306046 0.40404801200324 0  0.7363848265390697 0.4300897822476532 0  0.7434268192640443 0.4572488986608656 0  0.7470968484870631 0.4852563592537287 0  0.7471685463602674 0.5138756861919431 0  0.7436845725803514 0.5416355345682276 0  0.7366676675014515 0.5692498990074142 0  0.7266392271240413 0.595467441149819 0  0.7137441735101769 0.6203722673527831 0  0.6981755677733977 0.6438711284227793 0  0.6802835348043513 0.6655793651618542 0  0.6603896282414478 0.6852429222610992 0  0.6383801912091536 0.7029100009601486 0  0.6148099163905038 0.7180489729504541 0  0.5894253240786892 0.7307070206001133 0  0.562906509715163 0.7403852675421675 0  0.5348922932594079 0.7468947170729165 0  0.5062343213412579 0.7498008796124784 0  0.4772524396988861 0.748929510637782 0  0.4489835919387134 0.7443174788975123 0  0.4218790232839981 0.7363728068388422 0  0.3958612292558347 0.7253531194201718 0  0.3712534545109635 0.7115296876779679 0  0.3481084485522862 0.6950289607152638 0  0.3268679134392882 0.6762208852901939 0  0.3078341868800972 0.6554261339534992 0  0.2908246901264658 0.6322967395861351 0  0.2765648742818921 0.6076638893755617 0  0.2651600194072044 0.5814469581552538 0  0.2569061332807598 0.55406118210876 0  0.2521020587369893 0.5255843308218349 0  0.5015130584548882 0.62894747450195 0  0.5091479815035811 0.3630681744533484 0  0.6445668313394912 0.4978618073387752 0  0.3494004592259616 0.4976215992341834 0  0.3984879618997511 0.4083975002946837 0  0.3935770890562102 0.5882653474116819 0  0.5902059544895765 0.3929563261307913 0  0.5892731505529781 0.6063416042826455 0  0.4323457471791514 0.6543779027522061 0  0.4848788008481173 0.6903558629777823 0  0.5455204895526911 0.6875522901821698 0  0.429632102854286 0.3408527160838248 0  0.4869492057058413 0.3069086398315554 0  0.5485574545000571 0.311739908953412 0  0.6570389823983905 0.591075543335649 0  0.6574547971343105 0.4088311380178255 0  0.3366636668187411 0.5781646806611073 0  0.3392526948368655 0.4170167362917679 0  0.3779505399346841 0.6427296510422571 0  0.380890698439482 0.3527090319146543 0  0.5948721828570095 0.6581196735516017 0  0.595648737239942 0.3415154147316577 0  0.6951174365232471 0.4997746853618598 0  0.694154663363133 0.5543179328098085 0  0.6941788430861919 0.445915983581382 0  0.3035402210319543 0.4504960535915229 0  0.2928771898194765 0.5028776393366196 0  0.6380180968746004 0.3647723342737889 0  0.6380694125388126 0.6359559482618335 0  0.2996438689993436 0.5537769933809134 0  0.4236665903302189 0.5122276223787645 0  0.4407349294719543 0.6975719186102234 0  0.4426658721325257 0.3013752041922351 0  0.3456722023590292 0.3746137515184281 0  0.3423736781085707 0.6215655164796612 0  0.5629466367353103 0.5239046553057001 0  0.5212022905710163 0.4396967458298777 0  0.5200184475050963 0.2841183585670047 0  0.5181177248821124 0.7151677105192031 0  0.4674913662168511 0.5749153313042205 0  0.4693079025340587 0.4445917396615162 0  0.3955513149459239 0.6738465971786392 0  0.3981728197836173 0.3251405322200156 0  0.6160514964045334 0.449175122053915 0  0.6144437112278134 0.5478360006228816 0  0.5810663032829846 0.3111615440602781 0  0.580445772116475 0.6883232790258988 0  0.3822396967132044 0.5356046561163577 0  0.3764929926701281 0.4559860876743809 0  0.4417953631199766 0.4071902953070046 0  0.7126673509885378 0.5291382166242156 0  0.7135347963657104 0.4686988847315754 0  0.5505609309392081 0.6241308799001565 0  0.5535240851614823 0.3741797237322966 0  0.6950520366638312 0.5876064242154722 0  0.6945881208478649 0.4114972818529035 0  0.4191572616857192 0.6215989975016921 0  0.3037581046514189 0.4147601517406592 0  0.4728457199515516 0.7236117388805041 0  0.4741264073499507 0.2758297958156998 0  0.4587359502531728 0.6773639566586125 0  0.4574132794022632 0.3219984615698732 0  0.6670504578550824 0.3756691336895214 0  0.6673236488379584 0.6235838108533541 0  0.6281557685009183 0.3332988954557872 0  0.6282668112595026 0.6661201224207745 0  0.2807809987440062 0.4681993620692995 0  0.3044592763997845 0.5844919126759086 0  0.7238621902059559 0.4993725444341016 0  0.516666933839427 0.5634853531305378 0  0.2804168308429788 0.5325734895204037 0  0.3203979054995595 0.3880379484044337 0  0.4550356933881731 0.6192803931250255 0  0.5652953685606655 0.2868454375990511 0  0.5638955434587891 0.7128184064724229 0  0.3409885003246101 0.539395280222987 0  0.3153055039588887 0.5241120474066472 0  0.5660277628097
[...]
<PointData  Scalars="state"> 
<DataArray  type="Float64"  Name="state"  format="ascii">0.0000000000000000e+00  0.0000000000000000e+00  0.0000000000000000e+00  0.0000000000000000e+00  0.0000000000000000e+00  0.0000000000000000e+00  0.0000000000000000e+00  0.0000000000000000e+00  -2.8384519401710682e-02  -5.2738807973886836e-03  0.0000000000000000e+00  0.0000000000000000e+00  0.0000000000000000e+00  0.0000000000000000e+00  0.0000000000000000e+00  0.0000000000000000e+00  0.0000000000000000e+00  0.0000000000000000e+00  0.0000000000000000e+00  0.0000000000000000e+00  0.0000000000000000e+00  0.0000000000000000e+00  0.0000000000000000e+00  0.0000000000000000e+00  0.0000000000000000e+00  0.0000000000000000e+00  0.0000000000000000e+00  0.0000000000000000e+00  0.0000000000000000e+00  0.0000000000000000e+00  0.0000000000000000e+00  0.0000000000000000e+00  0.0000000000000000e+00  0.0000000000000000e+00  0.0000000000000000e+00  0.0000000000000000e+00  0.0000000000000000e+00  0.0000000000000000e+00  0.0000000000000000e+00  0.0000000000000000e+00  0.0000000000000000e+00  0.0000000000000000e+00  0.0000000000000000e+00  0.0000000000000000e+00  0.0000000000000000e+00  0.0000000000000000e+00  0.0000000000000000e+00  0.0000000000000000e+00  0.0000000000000000e+00  0.0000000000000000e+00  0.0000000000000000e+00  0.0000000000000000e+00  0.0000000000000000e+00  0.0000000000000000e+00  0.0000000000000000e+00  0.0000000000000000e+00  0.0000000000000000e+00  0.0000000000000000e+00  0.0000000000000000e+00  0.0000000000000000e+00  0.0000000000000000e+00  0.0000000000000000e+00  0.0000000000000000e+00  0.0000000000000000e+00  0.0000000000000000e+00  0.0000000000000000e+00  0.0000000000000000e+00  0.0000000000000000e+00  0.0000000000000000e+00  0.0000000000000000e+00  0.0000000000000000e+00  0.0000000000000000e+00  0.0000000000000000e+00  0.0000000000000000e+00  0.0000000000000000e+00  0.0000000000000000e+00  0.0000000000000000e+00  0.0000000000000000e+00  0.0000000000000000e+00  0.0000000000000000e+00  0.0000000000000000e+00  0.0000000000000000e+00  0.0000000000000000e+00  0.0000000000000000e+00  0.0000000000000000e+00  0.0000000000000000e+00  0.0000000000000000e+00  0.0000000000000000e+00  0.0000000000000000e+00  0.0000000000000000e+00  0.0000000000000000e+00  0.0000000000000000e+00  0.0000000000000000e+00  0.0000000000000000e+00  0.0000000000000000e+00  0.0000000000000000e+00  0.0000000000000000e+00  0.0000000000000000e+00  0.0000000000000000e+00  0.0000000000000000e+00  0.0000000000000000e+00  0.0000000000000000e+00  0.0000000000000000e+00  0.0000000000000000e+00  0.0000000000000000e+00  0.0000000000000000e+00  0.0000000000000000e+00  0.0000000000000000e+00  0.0000000000000000e+00  0.0000000000000000e+00  0.0000000000000000e+00  0.0000000000000000e+00  0.0000000000000000e+00  0.0000000000000000e+00  0.0000000000000000e+00  0.0000000000000000e+00  0.0000000000000000e+00  0.0000000000000000e+00  0.0000000000000000e+00  0.0000000000000000e+00  0.0000000000000000e+00  0.0000000000000000e+00  0.0000000000000000e+00  0.0000000000000000e+00  0.0000000000000000e+00  0.0000000000000000e+00  0.0000000000000000e+00  0.0000000000000000e+00  0.0000000000000000e+00  0.0000000000000000e+00  0.0000000000000000e+00  0.0000000000000000e+00  0.0000000000000000e+00  0.0000000000000000e+00  0.0000000000000000e+00  0.0000000000000000e+00  0.0000000000000000e+00  0.0000000000000000e+00  0.0000000000000000e+00  0.0000000000000000e+00  0.0000000000000000e+00  0.0000000000000000e+00  0.0000000000000000e+00  0.0000000000000000e+00  0.0000000000000000e+00  0.0000000000000000e+00  0.0000000000000000e+00  0.0000000000000000e+00  0.0000000000000000e+00  0.0000000000000000e+00  0.0000000000000000e+00  0.0000000000000000e+00  0.0000000000000000e+00  0.0000000000000000e+00  0.0000000000000000e+00  0.0000000000000000e+00  0.0000000000000000e+00  0.0000000000000000e+00  0.0000000000000000e+00  0.0000000000000000e+00  0.0000000000000000e+00  0.0000000000000000e+00  0.0000000000000000e+00  0.0000000000000000e+00  0.0000000000000000e+00  0.0000000000000000e+00  0.0000000000000000e+00  0.0000000000000000e+00  0.0000000000000000e+00  0.0000000000000000e+00  0.0000000000000000e+00  0.0000000000000000e+00  0.0000000000000000e+00  0.0000000000000000e+00  0.0000000000000000e+00  0.0000000000000000e+00  0.0000000000000000e+00  0.0000000000000000e+00  -2.8313188697401723e-02  -2.8472493799927442e-02  -2.8591031679710818e-02  -2.8742146614498820e-02  -2.8901265858336335e-02  -2.9134972417046871e-02  -2.9110674434151031e-02  -2.9125355620705149e-02  -2.9045952087297683e-02  -2.8810008902757485e-02  -2.8471182220033392e-02  -2.8353259777122081e-02  -2.8292202316621880e-02  -2.8119859397543842e-02  -2.8221487272133586e-02  -2.8449095882427538e-02  -2.8586013332043716e-02  -2.8950424199608957e-02  -2.9036898918241981e-02  -2.9120393095868613e-02  -2.9114855595443228e-02  -2.8895740704958130e-02  -2.8941386526937160e-02  -2.8651968533794349e-02  -2.8245843695464862e-02  -2.8201012127608702e-02  -2.8045812731740366e-02  -2.8040299259662987e-02  -2.8196682124043242e-02  -2.8244856249119366e-02  -2.8652225909364431e-02  -2.8938209500530911e-02  -2.8895708700827805e-02  -2.9109473576681321e-02  -2.9101635009451739e-02  -2.9016985931953305e-02  -2.8927184315797307e-02  -2.8543549611467895e-02  -2.8392876575274738e-02  -2.8150226856176300e-02  -2.8039949699635778e-02  -2.8201380888499519e-02  -2.8254485064879625e-02  -2.8379839044066484e-02  -2.8731603278343849e-02  -2.8987495355699312e-02  -2.9091510291443693e-02  -2.9101338635604140e-02  -2.9150977120196448e-02  -2.9020761000283345e-02  -2.8695169269247700e-02  -2.8568310953081592e-02  -2.8462205529040448e-02  -2.8300421499083642e-02  -1.1914057435231161e-02  -1.2753030628141211e-02  -1.3607137222713946e-02  -1.3941305748559915e-02  -1.2853106612178519e-02  -1.2859167361052281e-02  -1.3291948821912664e-02  -1.3208584493691177e-02  -1.6008217452257445e-02  -1.8514318448415081e-02  -1.8882092957220414e-02  -1.6851758729245398e-02  -1.8947060906913320e-02  -1.9075513204778998e-02  -1.7622832228046593e-02  -1.7662659429525749e-02  -1.7394408992586201e-02  -1.7474355397120885e-02  -1.8249430131766293e-02  -1.8663555868272425e-02  -1.7931405470955598e-02  -1.7995044199976343e-02  -1.8999995988404135e-02  -1.9989572284464251e-02  -1.9995777028213393e-02  -1.9938337863111819e-02  -2.0484192880069522e-02  -1.9285630530524116e-02  -1.9394555948367982e-02  -2.0668987067437014e-02  -7.8451987130405149e-03  -2.0433224322980958e-02  -2.0620051495367473e-02  -2.0011033009505279e-02  -1.9803697061331890e-02  -7.3005946681010169e-03  -7.2082508292316922e-03  -2.1934875430687763e-02  -2.1755554793077347e-02  -8.0632065380098917e-03  -7.1392262293940474e-03  -2.0336763150830914e-02  -2.0386500221437970e-02  -1.1946497979741648e-02  -1.1660033576165740e-02  -2.0728237312567788e-02  -2.0633987694443943e-02  -1.1240081689357776e-02  -1.2154185711920050e-02  -1.0236969725495690e-02  -2.1789941454535479e-02  -2.2011698200125416e-02  -1.2568164868684100e-02  -1.2777522514516422e-02  -2.1921888453315396e-02  -2.1911087974175326e-02  -1.3668114441855851e-02  -2.1788407867591165e-02  -2.2883353107927211e-02  -2.3036101658879874e-02  -1.7483798673551251e-02  -1.7801973977564150e-02  -2.1432709537659238e-02  -2.1408216992882350e-02  -2.1488038699311960e-02  -2.1445248839455765e-02  -2.2497888536613019e-02  -2.1628662733678146e-02  -2.3037345499317685e-02  -6.9428519135992448e-03  -2.2628244737290543e-02  -2.1777569245911427e-02  -1.1794413967327281e-02  -2.3041021859838355e-02  -2.2913693823983013e-02  -1.5469131924232892e-02  -1.7855488914893317e-02  -1.6650928307701075e-02  -1.6537563555751585e-02  -1.5720840136910046e-02  -1.5604809161803814e-02  -1.5915793461600884e-02  -1.5581734503673483e-02  -1.5628348538522126e-02  -1.5661198066716085e-02  -1.5862886879254467e-02  -1.5238122367446302e-02  -1.6760857376370189e-02  -2.1619511059436675e-02  -2.2899205352703352e-02  -2.2779881040285888e-02  -1.5503719141249274e-02  -1.6384073037608891e-02  -2.1976877063349401e-02  -2.1751595540492892e-02  -7.5681914858205064e-03  -1.5913671843089887e-02  -1.5988071710568232e-02  -1.4197862485803714e-02  -2.3392265026817509e-02  -2.3392535238928022e-02  -1.7454867192429942e-02  -2.2312300647829058e-02  -2.2672609708547994e-02  -2.3041907611386588e-02  -2.3003552307057428e-02  -1.6869846748272990e-02  -1.8340400948893536e-02  -1.8522158419598592e-02  -2.4305750838889546e-02  -2.3590468004497843e-02  -2.3775976443144834e-02  -2.3680596285714506e-02  -2.3385664478619162e-02  -2.3542933251470926e-02  -2.3328650014559145e-02  -2.3306954087798475e-02  -1.7261964968810859e-02  -1.8071063659671635e-02  -1.8078613132492021e-02  -1.0568171294332539e-02  -1.7307231081715248e-02  -1.7083203837120760e-02  -1.8204181143459439e-02  -8.4741218309045303e-03  -1.6269955310340870e-02  -1.6220541137489261e-02  -1.3576479605596133e-02  -1.6201009746978186e-02  -1.6369816453500049e-02  -2.3793594794144030e-02  -2.3867135155666318e-02  -2.4251223925430779e-02  -2.3650835957906381e-02  -2.3652170153064731e-02  -1.8127852087649585e-02  -8.9975989791393190e-03  -1.9076045415254303e-02  -1.8487810520778098e-02  -2.0315541828409039e-02  -2.0505293372643781e-02  -2.3796754134407169e-02  -1.5550318019367442e-02  -2.4230440395565701e-02  -2.4085772508271923e-02  -1.9138852972784472e-02  -1.9343897098063279e-02  -9.6216026577503784e-03  -1.0367320133166024e-02  -2.4661729773831482e-02  -2.4601579569960161e-02  -1.5866697300702289e-02  -9.5472178039953913e-03  -8.7898127679508845e-03  -2.0815464850280532e-02  -2.1064219219330705e-02  -1.6832776568735511e-02  -2.4570107022792938e-02  -1.9830369207815380e-02  -1.5194122645268629e-02  -1.5089512803466962e-02  -2.3617521471223462e-02  -6.3986688316679634e-03  -2.3985863230878129e-02  -2.3992404336576241e-02  -1.8406044212085571e-02  -1.8403914026504591e-02  -2.1078950081751972e-02  -2.0938891862616615e-02  -9.6042774032091462e-03  -1.8155593854926971e-02  -1.7971030018944390e-02  -1.4435939095140965e-02  -2.4368244308567526e-02  -2.4458040301412180e-02  -2.4218778035116035e-02  -2.4077874444418956e-02  -2.4669417069322450e-02  -2.4628814479542994e-02  -1.4599709440069565e-02  -1.3310906433623143e-02  -1.8561316178735254e-02  -1.8544856695567227e-02  -2.4140737881579888e-02  -9.6614050303455105e-03  -1.4442939574705906e-02  -1.3038686121458204e-02  -1.8135827335218610e-02  -1.4480563438746298e-02  -1.4576162021781473e-02  -6.3966352158055292e-03  -1.7549453036635868e-02  -1.7738425304299709e-02  -2.4004512986235540e-02  -2.3996594833622154e-02  -2.4330042519276902e-02  -5.0916911461585987e-02  -5.1099335816653386e-02  -5.1112624829983827e-02  -5.1370127681988641e-02  -4.4765188325460378e-02  -4.4266580440106278e-02  -4.6054251828897927e-02  -4.6039730313888444e-02  -4.6418723176567159e-02  -4.6564823153802115e-02  -4.7276532332525288e-02  -4.7277487478408257e-02  -3.9956784709848668e-02  -3.9930062564481207e-02  -3.9632282063819163e-02  -3.9852498412956947e-02  -4.9817714855471283e-02  -4.9389008116530332e-02  -4.9301946854845478e-02  -4.9577565174956872e-02  -4.7045763210556896e-02  -4.6578922985833215e-02  -4.6639717609429455e-02  -4.6734769135556853e-02  -4.2484670602825417e-02  -4.2138008018557375e-02  -4.1351215313217227e-02  -4.2027414815518520e-02  -4.1562740695445001e-02  -4.2475862484729371e-02  -4.3284771957463823e-02  -4.3045534806386648e-02  -3.8737204680752743e-02  -3.1433786579346971e-02  -3.8851340290660362e-02  -3.1580349454856139e-02  -4.2709497841385710e-02  -4.2833891602123850e-02  -3.0606971251709584e-02  -3.0422927584053933e-02  -4.2104992038792199e-02  -4.2486141168591056e-02  -3.7717895187096236e-02  -3.7414612337704066e-02  -4.0702738504082910e-02  -3.8055966676698909e-02  -3.8310903000064268e-02  -4.0147082277527786e-02  -4.0111311331025391e-02  -3.7914258399584261e-02  -3.8250892089443815e-02  -3.7595121415677037e-02  -3.7487509784976281e-02  -4.0254362848897038e-02  -3.1930731513940859e-02  -3.3688953990540671e-02  -3.1299252176085979e-02  -3.1288057623615452e-02  -3.0440014765741062e-02  -2.9800098020247922e-02  -5.0237127035950936e-02  -4.9855203575757026e-02  -5.1432890085312793e-02  -5.1496418662732878e-02  -4.1465249077531026e-02  -4.1066132541762522e-02  -4.0937912944958237e-02  -4.0544383962062926e-02  -5.0401815161682018e-02  -5.0476180844219960e-02  -5.2315088808407198e-02  -5.2198619626251996e-02  -4.2611461613755695e-02  -4.2722716495297755e-02  -3.0811185718207592e-02  -3.1278600253775317e-02  -2.9677682739550477e-02  -2.9317192925770244e-02  -4.0215112632787382e-02  -4.0054861131032959e-02  -2.9204259954556357e-02  -2.9415663925686137e-02  -3.9721422978015980e-02  -4.0167163228801282e-02  -3.7363698218096431e-02  -4.2584428522224015e-02  -3.7138778138618649e-02  -4.2544287661576398e-02  -3.7251034234638658e-02  -3.7199051745766418e-02  -3.6912586372320484e-02  -3.7273595913827104e-02  -3.7390284219117553e-02  -3.7183378116274077e-02  -3.7794979105870929e-02  -3.8147752562761275e-02  -4.1673808999979030e-02  -4.1405899671921986e-02  -4.2607104575030669e-02  -4.2358220421762870e-02  -3.6600832105049518e-02  -3.6866310472936883e-02  -4.2823180892963005e-02  -4.2794936715239408e-02  -3.7287855886185058e-02  -3.6923808621657644e-02  -4.8026578587844877e-02  -4.7639401557601137e-02  -3.7527985518526603e-02  -3.7605864572597791e-02  -3.6120933747751105e-02  -3.6330099402556285e-02  -2.5632278496649188e-02  -2.5827858345867465e-02  -4.9141223181288288e-02  -4.8721761783118364e-02  -3.7170366734433621e-02  -3.7230961722136087e-02  -2.6339866469163024e-02  -2.6436988144673369e-02  -2.5422449043293802e-02  -2.5501050712312692e-02  -2.4461253525003529e-02  -4.4806704931906562e-02  -4.4640329769372551e-02  -4.2802741633809829e-02  -4.2619583715837468e-02  -4.3696846478208921e-02  -4.3876615910311341e-02  -4.1795155154675516e-02  -4.2054791709127584e-02  -5.1469829616909733e-02  -5.1163156056308015e-02  -5.1709295203540354e-02  -5.1593978599484509e-02  -3.6495135216256330e-02  -3.6209672440831522e-02  -4.1504341344001452e-02  -4.2089575151582716e-02  -3.6472842237450925e-02  -3.6878510844529686e-02  -2.5098334535333531e-02  -2.5042906212682514e-02  -2.5221657523633870e-02  -1.3900942934880801e-02  -1.3948801063567993e-02  -1.3928118627232783e-02  -1.3864253472780003e-02  -2.3234120912240815e-02  -2.3392116806503275e-02  -4.7035002792341893e-02  -4.6801822634786952e-02  -4.7121326007585243e-02  -4.7230328983855617e-02  -4.5954190641254111e-02  -4.5878253160704693e-02  -5.2565465594424571e-02  -5.2863906889966041e-02  -4.5136719025963987e-02  -4.4869401103247469e-02  -5.2889181834770760e-02  -5.2944174952044405e-02  -3.5784498794878189e-02  -3.5879125770860873e-02  -2.8547087455230640e-02  -2.8598181342704511e-02  -3.6078743273287077e-02  -3.5750561276585276e-02  -3.4644912672611362e-02  -3.9673173254587121e-02  -3.8957676724145032e-02  -2.2814717477757405e-02  -2.2874210691680032e-02  -4.7715951114851239e-02  -4.7955642152835570e-02  -4.3406533883407608e-02  -4.3595186102554404e-02  -4.6117369438272049e-02  -4.5644637460524079e-02  -4.3136326448813565e-02  -4.3531400286838544e-02  -3.5397018536820493e-02  -3.5111166677257916e-02  -4.1307393250613854e-02  -4.1308823074031074e-02  -4.1720835879047916e-02  -4.2392987619597117e-02  -2.7667092492069532e-02  -2.4110273180438999e-02  -2.4337963440951415e-02  -4.8450201991747710e-02  -4.8612883018971875e-02  -2.3940611228269966e-02  -2.3648677069210405e-02  -2.2725428581011002e-02  -2.2515735388362091e-02  -3.6098100744077849e-02  -4.6796422975271083e-02  -4.6471000057484030e-02  -2.2602713976530919e-02  -2.2409262497977967e-02  -3.5826771918092963e-02  -4.3324460719671443e-02  -3.5807615278809199e-02  -4.3357824035700203e-02  -2.2521973510142321e-02  -2.2683158442053243e-02  -4.1122254022461696e-02  -4.0992799741933109e-02  -4.1196456693838070e-02  -4.1241097336113197e-02  -3.4796560436083986e-02  -3.4725025015079750e-02  -4.7893908810957980e-02  -4.7681004686832389e-02  -3.5358353555108538e-02  -4.2809140968108901e-02  -3.5069700945753353e-02  -4.2271676282104410e-02  -3.8538708780108288e-02  -3.9052267339179166e-02  -1.9082474591795986e-02  -2.0471697499942088e-02  -2.3812427498106130e-02  -2.3849528787434481e-02  -2.1779622807146001e-02  -2.1913739052368014e-02  -4.2565287435631621e-02  -4.2555712220354619e-02  -4.2062149396130476e-02  -4.2587047206533078e-02  -4.2131177441117912e-02  -4.2129422414262971e-02  -2.2334197363758954e-02  -2.2092733184904959e-02  -4.5586501126064286e-02  -4.5629801839255121e-02  -5.0803863348074157e-02  -5.0717055682552845e-02  -4.6735344109311988e-02  -4.6954730660679157e-02  -3.4927080763900706e-02  -3.4592020182733156e-02  -4.8863599106908601e-02  -4.8374544409857827e-02  -5.1431639463237651e-02  -5.1467773354092729e-02  -3.5454397148461395e-02  -3.5295632003584099e-02  -3.4348336262491896e-02  -3.4084548896604269e-02  -3.9612467121744065e-02  -3.9464413480250295e-02  -1.6052128863474791e-02  -1.6010191447590583e-02  -3.4236571755721368e-02  -3.4246251731686737e-02  -4.6124177048792583e-02  -4.4800986795317264e-02  -4.6446243193579366e-02  -4.5027404992234434e-02  -5.0928020969747516e-02  -5.0768281846256945e-02  -5.2928361840702660e-02  -5.2881214834070080e-02  -3.3246074359870280e-02  -3.3034829140942107e-02  -3.7504692285206288e-02  -3.7064278196409395e-02  -4.9426953901695075e-02  -4.9313882708563135e-02  -5.3109288796875036e-02  -5.3314229551240759e-02  -4.4368513147309385e-02  -4.4876431866875552e-02  -4.2563719843151229e-02  -4.2003034164377499e-02  -3.3314039957905869e-02  -1.9500837936304465e-02  -1.9526471363532347e-02  -3.4915741737086427e-02  -2.0097388002417980e-02  -2.0225387110295305e-02  -2.0411003597630147e-02  -1.7077512490386831e-02  -1.5114216724802098e-02  -1.5196696078114854e-02  -3.3656056815108096e-02  -3.3907385271511749e-02  -1.5474857691736697e-02  -1.5554076779387022e-02  -1.9762854511247156e-02  -1.9077281146549732e-02  -1.9257747854775957e-02  -3.3372165537802270e-02  -3.3130090480154806e-02  -1.6311379413132900e-02  -1.6356020410873591e-02  -4.1173473227636238e-02  -4.0800065150154066e-02  -4.3406038421226145e-02  -4.3092060460503977e-02  -5.1101530975779449e-02  -5.1451655515733642e-02  -4.0974454473007474e-02  -4.1140177829195448e-02  -4.2270855439410254e-02  -4.9096220456902193e-02  -4.9187545341076076e-02  -4.6077832506774746e-02  -4.6031582593902672e-02  -4.2125340168516261e-02  -3.2714785435522802e-02  -3.2526416856660148e-02  -4.7998325432686513e-02  -4.7555816046352069e-02  -3.4565842597686143e-02  -3.4327363590457960e-02  -1.6270776707844607e-02  -1.6321959474549390e-02  -3.3714960849331309e-02  -3.3527402413172307e-02  -1.6943953909625786e-02  -1.6755485419565445e-02  -3.3417906472745208e-02  -3.3219364885769508e-02  -4.2330901423344003e-02  -1.8657872241097842e-02  -3.8495312490526942e-02  -3.8198301444633841e-02  -3.5895085084498575e-02  -3.5973145161997233e-02  -3.8571657478362845e-02  -3.8602534987392523e-02  -3.8798239101155867e-02  -4.2308473372347853e-02  -3.9137325618876950e-02  -4.2703701136650736e-02  -5.0045294056663497e-02  -4.9990911628094221e-02  -4.5984983352634776e-02  -4.6223820254789244e-02  -4.2825517686282573e-02  -4.2691905249213999e-02  -3.9374310571731803e-02  -3.9095302558123698e-02  -4.6602748452000513e-02  -4.6066044581611482e-02  -4.8992206187336275e-02  -4.8877604197113358e-02  -4.2379140166158520e-02  -4.2876043125533669e-02  -3.4280543995440831e-02  -3.4525573889352887e-02  -3.6339740987191956e-02  -3.6078541324070700e-02  -3.6555901929688189e-02  -3.6679942385329033e-02  -4.5989744207460714e-02  -4.5741875808731347e-02  -3.2978641455364555e-02  -3.2861028063962641e-02  -3.3490583107672327e-02  -3.3248075944585530e-02  -4.2588470480954724e-02  -4.2913290427005361e-02  -4.2373223314240566e-02  -4.2379093139460748e-02  -1.8338289186541082e-02  -1.8225444121572339e-02  -3.6727348931239460e-02  -3.7074956823962696e-02  -3.8018345153430617e-02  -3.7754876119387153e-02  -4.0878863008389388e-02  -4.07044628783