<?xml version="1.0"?>
<VTKFile type="UnstructuredGrid"  version="0.1"  >
<UnstructuredGrid>
<Piece  NumberOfPoints="1286" NumberOfCells="2474">
<Points>
<DataArray  type="Float64"  NumberOfComponents="3"  format="ascii">0 0 0  0 1 0  1 1 0  1 0 0  1.1 -0.1 0  -0.1 -0.1 0  1.1 1.1 0  -0.1 1.1 0  0.2500608986069779 0.4969095633650367 0  0.5009731891616658 0.4991850026488929 0  0 0.9499999999997918 0  0 0.8999999999995836 0  0 0.8499999999996529 0  0 0.7999999999999998 0  0 0.7500000000003466 0  0 0.7000000000006934 0  0 0.6500000000010401 0  0 0.6000000000013869 0  0 0.5500000000017335 0  0 0.5000000000020587 0  0 0.4500000000018723 0  0 0.4000000000016644 0  0 0.3500000000014564 0  0 0.3000000000012483 0  0 0.2500000000010403 0  0 0.2000000000008322 0  0 0.1500000000006241 0  0 0.100000000000416 0  0 0.05000000000020799 0  0.04999999999989965 0 0  0.09999999999981467 0 0  0.1499999999997036 0 0  0.1999999999995579 0 0  0.2499999999994121 0 0  0.2999999999992664 0 0  0.3499999999991206 0 0  0.3999999999989749 0 0  0.4499999999988292 0 0  0.4999999999986943 0 0  0.5499999999988151 0 0  0.5999999999989468 0 0  0.6499999999990784 0 0  0.69999999999921 0 0  0.7499999999993417 0 0  0.7999999999994734 0 0  0.8499999999996051 0 0  0.8999999999997368 0 0  0.9499999999998684 0 0  1 0.04999999999989965 0  1 0.09999999999981467 0  1 0.1499999999997036 0  1 0.1999999999995579 0  1 0.2499999999994121 0  1 0.2999999999992664 0  1 0.3499999999991206 0  1 0.3999999999989749 0  1 0.4499999999988292 0  1 0.4999999999986943 0  1 0.5499999999988151 0  1 0.5999999999989468 0  1 0.6499999999990784 0  1 0.69999999999921 0  1 0.7499999999993417 0  1 0.7999999999994734 0  1 0.8499999999996051 0  1 0.8999999999997368 0  1 0.9499999999998684 0  0.9499999999997918 1 0  0.8999999999995836 1 0  0.8499999999996529 1 0  0.7999999999999998 1 0  0.7500000000003466 1 0  0.7000000000006934 1 0  0.6500000000010401 1 0  0.6000000000013869 1 0  0.5500000000017335 1 0  0.5000000000020587 1 0  0.4500000000018723 1 0  0.4000000000016644 1 0  0.3500000000014564 1 0  0.3000000000012483 1 0  0.2500000000010403 1 0  0.2000000000008322 1 0  0.1500000000006241 1 0  0.100000000000416 1 0  0.05000000000020799 1 0  -0.1 1.05000000000004 0  -0.1 1.000000000000079 0  -0.1 0.9500000000001624 0  -0.1 0.9000000000003032 0  -0.1 0.850000000000444 0  -0.1 0.8000000000005848 0  -0.1 0.7500000000007256 0  -0.1 0.7000000000008665 0  -0.1 0.6500000000010508 0  -0.1 0.6000000000012352 0  -0.1 0.5500000000014196 0  -0.1 0.500000000001539 0  -0.1 0.4500000000014195 0  -0.1 0.4000000000013 0  -0.1 0.3500000000011588 0  -0.1 0.3000000000010178 0  -0.1 0.2500000000008986 0  -0.1 0.2000000000007579 0  -0.1 0.1500000000006174 0  -0.1 0.1000000000005272 0  -0.1 0.05000000000040083 0  -0.1 2.671196597248127e-13 0  -0.1 -0.0499999999998666 0  -0.0500000000000906 -0.1 0  -1.730560139634463e-13 -0.1 0  0.04999999999975802 -0.1 0  0.09999999999961506 -0.1 0  0.1499999999994613 -0.1 0  0.199999999999302 -0.1 0  0.2499999999991446 -0.1 0  0.2999999999990088 -0.1 0  0.3499999999988296 -0.1 0  0.3999999999986936 -0.1 0  0.4499999999985143 -0.1 0  0.4999999999984002 -0.1 0  0.5499999999985247 -0.1 0  0.5999999999986493 -0.1 0  0.6499999999987955 -0.1 0  0.6999999999989417 -0.1 0  0.7499999999990659 -0.1 0  0.7999999999992116 -0.1 0  0.8499999999993573 -0.1 0  0.8999999999994526 -0.1 0  0.949999999999584 -0.1 0  0.9999999999997226 -0.1 0  1.049999999999861 -0.1 0  1.1 -0.0500000000000906 0  1.1 -1.730560139634463e-13 0  1.1 0.04999999999975802 0  1.1 0.09999999999961506 0  1.1 0.1499999999994613 0  1.1 0.199999999999302 0  1.1 0.2499999999991446 0  1.1 0.2999999999990088 0  1.1 0.3499999999988296 0  1.1 0.3999999999986936 0  1.1 0.4499999999985143 0  1.1 0.4999999999984002 0  1.1 0.5499999999985247 0  1.1 0.5999999999986493 0  1.1 0.6499999999987955 0  1.1 0.6999999999989417 0  1.1 0.7499999999990659 0  1.1 0.7999999999992116 0  1.1 0.8499999999993573 0  1.1 0.8999999999994526 0  1.1 0.949999999999584 0  1.1 0.9999999999997226 0  1.1 1.049999999999861 0  1.05000000000004 1.1 0  1.000000000000079 1.1 0  0.9500000000001624 1.1 0  0.9000000000003032 1.1 0  0.850000000000444 1.1 0  0.8000000000005848 1.1 0  0.7500000000007256 1.1 0  0.7000000000008665 1.1 0  0.6500000000010508 1.1 0  0.6000000000012352 1.1 0  0.5500000000014196 1.1 0  0.500000000001539 1.1 0  0.4500000000014195 1.1 0  0.4000000000013 1.1 0  0.3500000000011588 1.1 0  0.3000000000010178 1.1 0  0.2500000000008986 1.1 0  0.2000000000007579 1.1 0  0.1500000000006174 1.1 0  0.1000000000005272 1.1 0  0.05000000000040083 1.1 0  2.671196597248127e-13 1.1 0  -0.0499999999998666 1.1 0  0.2540916854363586 0.4674119575945275 0  0.2621418115981274 0.4393392192982567 0  0.2732336762376983 0.4128796927162395 0  0.2866339556359968 0.3880882816038099 0  0.3017203058377291 0.3650047100736264 0  0.3180698790732905 0.3436774873065783 0  0.3351733327135748 0.3243530164302647 0  0.3548532571765874 0.3056447159070914 0  0.3765775895077878 0.2885108886199229 0  0.3999941501089702 0.2734839131408422 0  0.4250792754280945 0.2609427963119161 0  0.4515528889352436 0.2514211819743701 0  0.4794637132873993 0.2456057216350052 0  0.5085633528151137 0.2445522219210605 0  0.5369275949887122 0.2484940602754057 0  0.5642538564761895 0.2566117212827458 0  0.590185849909328 0.2680728986486174 0  0.6145691689269853 0.2820396675760372 0  0.6375532726698321 0.2982793009664206 0  0.6590178053107751 0.3164656289077903 0  0.6787232798657921 0.3361844440352236 0  0.6969877626837415 0.3577104261318448 0  0.7132434685170729 0.3804922677752869 0  0.7273944932145286 0.4046481490142009 0  0.7390105761511984 0.4301886355773804 0  0.747628278742289 0.4570626220089199 0  0.7524108120728078 0.4851333806713025 0  0.7524575084590944 0.5139088200977071 0  0.7478399160215444 0.541714884906987 0  0.739172031711777 0.56903024471083 0  0.7275442936211838 0.5947249803186934 0  0.713327357872626 0.6190400968280441 0  0.6968731246894145 0.6420306864205418 0  0.6785817329253485 0.6634758377261941 0  0.6586994814483621 0.6832629554041856 0  0.6370442200695635 0.7014530599028688 0  0.6140220229053294 0.7175550240299646 0  0.5892620882709095 0.7316105211466177 0  0.5632905594016514 0.7429395942344855 0  0.5355541385672009 0.7510804047262759 0  0.5068294418556413 0.7549675078346387 0  0.4777143387580083 0.7538021547904511 0  0.4495406383859792 0.7478738752474442 0  0.4228372130939453 0.7382932595365072 0  0.3974472279581021 0.7257816564876505 0  0.3734846986505254 0.7107992632516602 0  0.3508726158597986 0.6935754253865346 0  0.3299287865082168 0.6744976042424197 0  0.3108462666033829 0.6538190728781413 0  0.2934018707222066 0.6310843965837355 0  0.2783149621477795 0.6070151073011466 0  0.2658034049566592 0.5813858662571822 0  0.2563793055664409 0.5544070707954064 0  0.2508224089485935 0.5261301677795041 0  0.5023871124116202 0.6297561602703099 0  0.5102931448877944 0.3622415257194831 0  0.6461622089318088 0.497846583087252 0  0.3508034602094046 0.4981416696570619 0  0.4006046155984385 0.4089472481120454 0  0.3950581192102772 0.5883994191400621 0  0.5908988794185409 0.3929172092799344 0  0.5897630017767467 0.6063414290485489 0  0.4336703078625787 0.6551032639101244 0  0.4856760683581791 0.6923964811918289 0  0.5458906560981244 0.6890322108954989 0  0.4315667662156063 0.3404523603334864 0  0.4881246502761617 0.3047360536225798 0  0.5492335535492665 0.3101247603582514 0  0.6576203738539649 0.5904982208877493 0  0.6582044216920273 0.4092960163461855 0  0.3380902054223977 0.5780712317822603 0  0.3418214591869381 0.4182705683524379 0  0.3798199844359206 0.6425029460302573 0  0.3836561239722767 0.3535882566487262 0  0.594812209153909 0.6581258461127716 0  0.5958599135373454 0.3413553054657026 0  0.6978000430121694 0.4997326901292004 0  0.6960431901189569 0.5539996694233602 0  0.6961914893639045 0.4461252368960304 0  0.3053470977017937 0.4515937909993109 0  0.2934001698555146 0.5034602774343677 0  0.6379826693616359 0.3653888288431039 0  0.6377805932962092 0.6351654799500337 0  0.3003847092873052 0.5539140347812107 0  0.4250909460212912 0.512535936965222 0  0.4418403792302462 0.6991540818623542 0  0.4442283341830312 0.2997991154690974 0  0.3489651213600976 0.3762427563300242 0  0.344362151291487 0.6210169543500028 0  0.5640166879423005 0.5239808362611564 0  0.5224010090069788 0.4396135643569478 0  0.5209278145538803 0.281005002032008 0  0.5186813837624726 0.7180511825278685 0  0.4686835425160481 0.5753129832832563 0  0.4707490222836909 0.4446496091961883 0  0.3973055618709809 0.6739602802384856 0  0.4006183191343527 0.3253872994291524 0  0.617178274586798 0.4492782713977374 0  0.6154858688359122 0.5477224822821507 0  0.5813326653938814 0.3103310074880276 0  0.5803998790497444 0.6889251649142144 0  0.3836417619004828 0.5358780468721664 0  0.3783303790970634 0.4566288840275901 0  0.4435245287203069 0.4072647598810472 0  0.7157278310819079 0.5290214914199116 0  0.716652853145659 0.4687195811172388 0  0.5511477419392578 0.6246004987163286 0  0.5543446769189654 0.3737245240334475 0  0.6959346728667104 0.5869115826441846 0  0.6956039012378962 0.4120652174289442 0  0.4205910101227792 0.6219390604670936 0  0.3066896844011364 0.4164238842020363 0  0.4735387385670971 0.7268406793304031 0  0.4751857220832035 0.2724147116832358 0  0.4597728137282014 0.6788121831454336 0  0.4589337805976932 0.3206869332337456 0  0.6669713752351741 0.3765784125324697 0  0.667043330069753 0.6225143811965842 0  0.6277816253634331 0.3338910457179864 0  0.6276139606744603 0.6653036856506337 0  0.281706897705419 0.4690941942406591 0  0.3057681678687666 0.5842516656536882 0  0.7277424865232689 0.4993238541918195 0  0.517695494073769 0.5637810212341733 0  0.2804816268144698 0.5329509024242296 0  0.3239145494839271 0.3899711263066966 0  0.4562197799564522 0.6199127038096436 0  0.5657985219998132 0.284965429224431 0  0.5640713483562881 0.7144286449829991 0  0.3421987745743609 0.5396400802718471 0  0.3161998890309787 0.5244928847027702 0  0.566
[...]
<PointData  Scalars="state"> 
<DataArray  type="Float64"  Name="state"  format="ascii">0.0000000000000000e+00  0.0000000000000000e+00  0.0000000000000000e+00  0.0000000000000000e+00  0.0000000000000000e+00  0.0000000000000000e+00  0.0000000000000000e+00  0.0000000000000000e+00  -2.9037227119718099e-02  -5.2473784823328451e-03  0.0000000000000000e+00  0.0000000000000000e+00  0.0000000000000000e+00  0.0000000000000000e+00  0.0000000000000000e+00  0.0000000000000000e+00  0.0000000000000000e+00  0.0000000000000000e+00  0.0000000000000000e+00  0.0000000000000000e+00  0.0000000000000000e+00  0.0000000000000000e+00  0.0000000000000000e+00  0.0000000000000000e+00  0.0000000000000000e+00  0.0000000000000000e+00  0.0000000000000000e+00  0.0000000000000000e+00  0.0000000000000000e+00  0.0000000000000000e+00  0.0000000000000000e+00  0.0000000000000000e+00  0.0000000000000000e+00  0.0000000000000000e+00  0.0000000000000000e+00  0.0000000000000000e+00  0.0000000000000000e+00  0.0000000000000000e+00  0.0000000000000000e+00  0.0000000000000000e+00  0.0000000000000000e+00  0.0000000000000000e+00  0.0000000000000000e+00  0.0000000000000000e+00  0.0000000000000000e+00  0.0000000000000000e+00  0.0000000000000000e+00  0.0000000000000000e+00  0.0000000000000000e+00  0.0000000000000000e+00  0.0000000000000000e+00  0.0000000000000000e+00  0.0000000000000000e+00  0.0000000000000000e+00  0.0000000000000000e+00  0.0000000000000000e+00  0.0000000000000000e+00  0.0000000000000000e+00  0.0000000000000000e+00  0.0000000000000000e+00  0.0000000000000000e+00  0.0000000000000000e+00  0.0000000000000000e+00  0.0000000000000000e+00  0.0000000000000000e+00  0.0000000000000000e+00  0.0000000000000000e+00  0.0000000000000000e+00  0.0000000000000000e+00  0.0000000000000000e+00  0.0000000000000000e+00  0.0000000000000000e+00  0.0000000000000000e+00  0.0000000000000000e+00  0.0000000000000000e+00  0.0000000000000000e+00  0.0000000000000000e+00  0.0000000000000000e+00  0.0000000000000000e+00  0.0000000000000000e+00  0.0000000000000000e+00  0.0000000000000000e+00  0.0000000000000000e+00  0.0000000000000000e+00  0.0000000000000000e+00  0.0000000000000000e+00  0.0000000000000000e+00  0.0000000000000000e+00  0.0000000000000000e+00  0.0000000000000000e+00  0.0000000000000000e+00  0.0000000000000000e+00  0.0000000000000000e+00  0.0000000000000000e+00  0.0000000000000000e+00  0.0000000000000000e+00  0.0000000000000000e+00  0.0000000000000000e+00  0.0000000000000000e+00  0.0000000000000000e+00  0.0000000000000000e+00  0.0000000000000000e+00  0.0000000000000000e+00  0.0000000000000000e+00  0.0000000000000000e+00  0.0000000000000000e+00  0.0000000000000000e+00  0.0000000000000000e+00  0.0000000000000000e+00  0.0000000000000000e+00  0.0000000000000000e+00  0.0000000000000000e+00  0.0000000000000000e+00  0.0000000000000000e+00  0.0000000000000000e+00  0.0000000000000000e+00  0.0000000000000000e+00  0.0000000000000000e+00  0.0000000000000000e+00  0.0000000000000000e+00  0.0000000000000000e+00  0.0000000000000000e+00  0.0000000000000000e+00  0.0000000000000000e+00  0.0000000000000000e+00  0.0000000000000000e+00  0.0000000000000000e+00  0.0000000000000000e+00  0.0000000000000000e+00  0.0000000000000000e+00  0.0000000000000000e+00  0.0000000000000000e+00  0.0000000000000000e+00  0.0000000000000000e+00  0.0000000000000000e+00  0.0000000000000000e+00  0.0000000000000000e+00  0.0000000000000000e+00  0.0000000000000000e+00  0.0000000000000000e+00  0.0000000000000000e+00  0.0000000000000000e+00  0.0000000000000000e+00  0.0000000000000000e+00  0.0000000000000000e+00  0.0000000000000000e+00  0.0000000000000000e+00  0.0000000000000000e+00  0.0000000000000000e+00  0.0000000000000000e+00  0.0000000000000000e+00  0.0000000000000000e+00  0.0000000000000000e+00  0.0000000000000000e+00  0.0000000000000000e+00  0.0000000000000000e+00  0.0000000000000000e+00  0.0000000000000000e+00  0.0000000000000000e+00  0.0000000000000000e+00  0.0000000000000000e+00  0.0000000000000000e+00  0.0000000000000000e+00  0.0000000000000000e+00  0.0000000000000000e+00  0.0000000000000000e+00  0.0000000000000000e+00  0.0000000000000000e+00  0.0000000000000000e+00  0.0000000000000000e+00  0.0000000000000000e+00  0.0000000000000000e+00  0.0000000000000000e+00  0.0000000000000000e+00  0.0000000000000000e+00  0.0000000000000000e+00  0.0000000000000000e+00  0.0000000000000000e+00  -2.8825364270918474e-02  -2.8764404308620064e-02  -2.8638379172865640e-02  -2.8584884255865327e-02  -2.8602668903593920e-02  -2.8788194135787516e-02  -2.8820139326678082e-02  -2.8922110133718926e-02  -2.8966680795935763e-02  -2.8873600262146280e-02  -2.8687342455013233e-02  -2.8718360742235258e-02  -2.8762652116255925e-02  -2.8593424896942672e-02  -2.8549178322739097e-02  -2.8555833899798277e-02  -2.8461942578800310e-02  -2.8609450337561251e-02  -2.8524149458932467e-02  -2.8503097704511010e-02  -2.8462236943539266e-02  -2.8294456375772391e-02  -2.8457951394598308e-02  -2.8337205794622296e-02  -2.8127347247849831e-02  -2.8271588278289433e-02  -2.8257695110901117e-02  -2.8252511268710086e-02  -2.8272692140303517e-02  -2.8126098105299469e-02  -2.8336248067883724e-02  -2.8452948575433325e-02  -2.8285263691944666e-02  -2.8440306156647905e-02  -2.8463314793150153e-02  -2.8474214349757533e-02  -2.8542192171000659e-02  -2.8371122528987162e-02  -2.8436914950369863e-02  -2.8409674378692400e-02  -2.8437290707342057e-02  -2.8576779515300011e-02  -2.8501004272159916e-02  -2.8455792642234468e-02  -2.8646219961533222e-02  -2.8773297647371694e-02  -2.8797371570984824e-02  -2.8804294642886634e-02  -2.8925204107637249e-02  -2.8933463385725153e-02  -2.8799406581611047e-02  -2.8888184900138281e-02  -2.8993416274819900e-02  -2.8970213268024399e-02  -1.1866593466348845e-02  -1.2740101815331948e-02  -1.3440684563017252e-02  -1.4127289697739118e-02  -1.2924991111069338e-02  -1.2917856770028581e-02  -1.3129861082033560e-02  -1.3032508489094407e-02  -1.6012174252445326e-02  -1.8563501606316694e-02  -1.8832043457780438e-02  -1.6910080796116014e-02  -1.9064611608953414e-02  -1.9065786320001634e-02  -1.7367470602336992e-02  -1.7414112416939125e-02  -1.7525357610829382e-02  -1.7558637367608890e-02  -1.8224626915284609e-02  -1.8661953289986058e-02  -1.7713799190584332e-02  -1.7801950168988605e-02  -1.8897270683686882e-02  -1.9822332815644706e-02  -1.9833143767068660e-02  -2.0154170324203514e-02  -2.0829050284077836e-02  -1.8979782421443499e-02  -1.9071411448320922e-02  -2.0945404638275579e-02  -7.9153366931067164e-03  -2.0475872757104985e-02  -2.0746357990373842e-02  -1.9982040100081346e-02  -1.9811784987945370e-02  -7.1842158660690245e-03  -7.1536772245836752e-03  -2.2091669446225010e-02  -2.1849663681822937e-02  -8.0603802472895437e-03  -7.1565970129391972e-03  -2.0295315970271899e-02  -2.0411867983769955e-02  -1.1772882429478571e-02  -1.1484173155696014e-02  -2.0602663329621823e-02  -2.0471570332813650e-02  -1.1357957994469278e-02  -1.2277804116793847e-02  -1.0281789202543827e-02  -2.1724188024746450e-02  -2.1946973156370644e-02  -1.2451259835152856e-02  -1.2682688060773672e-02  -2.1652803388169724e-02  -2.1643713733325586e-02  -1.3681855917120093e-02  -2.1868310797626456e-02  -2.3044776040807319e-02  -2.3280990556460303e-02  -1.7511131845013527e-02  -1.7892691603420895e-02  -2.1070629272093352e-02  -2.1037721427765273e-02  -2.1161802801015307e-02  -2.1096509431162473e-02  -2.2847075573514581e-02  -2.1805181636156374e-02  -2.3043087039899244e-02  -6.8803743670978598e-03  -2.3023115096434451e-02  -2.1752174039255830e-02  -1.1794568330818716e-02  -2.3027235309079869e-02  -2.2853980013731560e-02  -1.5657264913847845e-02  -1.8119365943839921e-02  -1.6549355147842528e-02  -1.6405399844534492e-02  -1.5887729830904588e-02  -1.5580769096296753e-02  -1.5940325001049901e-02  -1.5341651423651487e-02  -1.5398773909804016e-02  -1.5729763317893466e-02  -1.5920286996650261e-02  -1.5051053757680006e-02  -1.6608307459009385e-02  -2.1683709128885804e-02  -2.2962095306464793e-02  -2.2747976813088228e-02  -1.5318263401695323e-02  -1.6227011440156435e-02  -2.1895879415879848e-02  -2.1685401247026906e-02  -7.4522529374828885e-03  -1.5687828717896944e-02  -1.5779765707489068e-02  -1.4246444926261516e-02  -2.3209429372106467e-02  -2.3210326755219887e-02  -1.7700298786668896e-02  -2.2210398819880135e-02  -2.2611780574719329e-02  -2.2785498322420068e-02  -2.2713793875606170e-02  -1.6859888445671840e-02  -1.8355691124739927e-02  -1.8592170540777150e-02  -2.4799591018326277e-02  -2.3793870021681460e-02  -2.4053578926388392e-02  -2.3884422606445813e-02  -2.3493871806482446e-02  -2.3748835716807307e-02  -2.2896023781878189e-02  -2.2857397253487691e-02  -1.7295935421203119e-02  -1.7856967901165994e-02  -1.7864377120382694e-02  -1.0593841506574136e-02  -1.7328947967132587e-02  -1.7105111623935305e-02  -1.8347182420522676e-02  -8.5494993708847208e-03  -1.6238396352195955e-02  -1.6148445613380486e-02  -1.3617834596625196e-02  -1.6208318960421995e-02  -1.6430816156524478e-02  -2.3870613213996361e-02  -2.4005157912066883e-02  -2.4604512150850903e-02  -2.3260484747968626e-02  -2.3266627095721366e-02  -1.8332507799210286e-02  -8.9923117593189803e-03  -1.8948225631172974e-02  -1.8357162070122529e-02  -2.0394964082386956e-02  -2.0661011072963812e-02  -2.3651462626710362e-02  -1.5563085736226270e-02  -2.4371032004778775e-02  -2.4116323671012879e-02  -1.9142054047245862e-02  -1.9421675073030772e-02  -9.4848012860287642e-03  -1.0488358455646147e-02  -2.4704030767111931e-02  -2.4641753939906228e-02  -1.5901205314977393e-02  -9.4256094567720886e-03  -8.8412409389226135e-03  -2.0919234882603548e-02  -2.1239106384713075e-02  -1.6693367429469381e-02  -2.5039396001839478e-02  -2.0127551228307856e-02  -1.5039539723098518e-02  -1.4914588478576511e-02  -2.3562234237103376e-02  -6.4292818699123360e-03  -2.3896408682872756e-02  -2.3902252991870737e-02  -1.8119428721240057e-02  -1.8106746352708078e-02  -2.1148968262908824e-02  -2.0955314264855959e-02  -9.4535706227833992e-03  -1.8188309929377765e-02  -1.8042905657180308e-02  -1.4434723590719779e-02  -2.4553911789639525e-02  -2.4711890668292377e-02  -2.4179661919573988e-02  -2.3953922146017690e-02  -2.4502844271766671e-02  -2.4419915849557827e-02  -1.4394721667371962e-02  -1.3126600535615700e-02  -1.8301984358760407e-02  -1.8264899469811774e-02  -2.4397146386398422e-02  -9.6020787875052589e-03  -1.4232746043755667e-02  -1.2848180920728217e-02  -1.8349429948973289e-02  -1.4598285122138902e-02  -1.4674355640629523e-02  -6.4093508449257174e-03  -1.7379869180405794e-02  -1.7568819318929025e-02  -2.3542591263133513e-02  -2.3521932677204649e-02  -2.4262539509419066e-02  -5.0830442813725098e-02  -5.1055456858951034e-02  -5.1348010919339673e-02  -5.1821337092336411e-02  -4.5326127926680199e-02  -4.4579987815882169e-02  -4.5846212209111802e-02  -4.5790358757852360e-02  -4.6137070088331955e-02  -4.6310426264845689e-02  -4.7362625430948734e-02  -4.7241649158927895e-02  -3.9541074873969725e-02  -3.9521148312018056e-02  -3.9080425875970687e-02  -4.0182400190559540e-02  -4.9678315779969236e-02  -4.9290398046330064e-02  -4.9649339133815834e-02  -5.0197166677738783e-02  -4.6829276786826697e-02  -4.6392383133168270e-02  -4.6976316445992435e-02  -4.6885592150587171e-02  -4.2996486882469584e-02  -4.2489151592302300e-02  -4.0959442533158030e-02  -4.1775353948408721e-02  -4.1167312321411097e-02  -4.2203695337914147e-02  -4.2853105072376996e-02  -4.2631935464209320e-02  -3.8800765069073921e-02  -3.1525892113993773e-02  -3.9028896006624902e-02  -3.1763577140162674e-02  -4.2646166993428672e-02  -4.2679536089760849e-02  -3.0593236515959819e-02  -3.0390380555956279e-02  -4.2440861441049700e-02  -4.3015297496379890e-02  -3.7639377184737061e-02  -3.7309697680259650e-02  -4.1101298674440109e-02  -3.7965471785119380e-02  -3.8254921204087446e-02  -3.9865296496181792e-02  -3.9791457597539132e-02  -3.8132421106880296e-02  -3.8654515650428510e-02  -3.7254120699740392e-02  -3.7120892760410536e-02  -3.9716529140313921e-02  -3.1591219492386344e-02  -3.3361538524149546e-02  -3.1161121212883353e-02  -3.1105949240270211e-02  -3.0648396132886314e-02  -3.0120245416391234e-02  -5.0823372305750757e-02  -5.0175475396900142e-02  -5.1290386443447612e-02  -5.1394499461878525e-02  -4.1229980302397502e-02  -4.0787955998080071e-02  -4.0713984034487199e-02  -4.0274881768472416e-02  -5.0275462552697367e-02  -5.0396828862900749e-02  -5.2686565731851764e-02  -5.2372385914066996e-02  -4.2807443433870364e-02  -4.3095920263013864e-02  -3.0619049114698572e-02  -3.1105640851278721e-02  -3.0031502393445077e-02  -2.9509964173324556e-02  -4.0212623459985448e-02  -4.0192185545287043e-02  -2.9012170567311094e-02  -2.9254527299770679e-02  -3.9418570667208642e-02  -3.9845298737936470e-02  -3.6983969420305754e-02  -4.2025211269589247e-02  -3.6776169335621403e-02  -4.1985830353336362e-02  -3.7293048634777011e-02  -3.7152935858763447e-02  -3.6713154461244922e-02  -3.7079144701311600e-02  -3.7616112444928934e-02  -3.7340668578756175e-02  -3.8162477301210182e-02  -3.8605910776621025e-02  -4.2023674555213240e-02  -4.1591714436043911e-02  -4.2578865960538670e-02  -4.2296615878541763e-02  -3.7033824417166454e-02  -3.7334218483834038e-02  -4.2554233634359596e-02  -4.2580976683585667e-02  -3.6930425023675002e-02  -3.6574926672106725e-02  -4.7831894259572134e-02  -4.7483811153223594e-02  -3.7479573720574109e-02  -3.7473262512510937e-02  -3.5953266162972043e-02  -3.6190527336279497e-02  -2.5589875713652305e-02  -2.5802144763493625e-02  -4.9792221946732836e-02  -4.9085742967579823e-02  -3.7292028638147019e-02  -3.7211843285093311e-02  -2.6043121467625111e-02  -2.6147012459233725e-02  -2.5467923812015892e-02  -2.5613662858170762e-02  -2.4136907266338548e-02  -4.4447074532839359e-02  -4.4309578387592703e-02  -4.3077274209881042e-02  -4.2752713657473664e-02  -4.3259050558304028e-02  -4.3454749960529421e-02  -4.1731147437960782e-02  -4.2020834541038284e-02  -5.1334664001096465e-02  -5.1071248209262343e-02  -5.2219627225865761e-02  -5.1864904396957359e-02  -3.6173870445995626e-02  -3.5906450918264013e-02  -4.1803285699565117e-02  -4.2542988332375131e-02  -3.6242897767197663e-02  -3.6654086175951839e-02  -2.5304476025330019e-02  -2.5011794827509898e-02  -2.5208721737669373e-02  -1.3929446550545226e-02  -1.4005632273260214e-02  -1.3924524196012280e-02  -1.3854354148351539e-02  -2.3324756959102216e-02  -2.3560272613479379e-02  -4.6735571780862580e-02  -4.6530064891650152e-02  -4.7282965022161165e-02  -4.7249350352953370e-02  -4.6127401842912814e-02  -4.5917860802356908e-02  -5.2880446254153404e-02  -5.3443139520336809e-02  -4.4994317650538837e-02  -4.4695723315407616e-02  -5.2827386506017655e-02  -5.2834630699909117e-02  -3.5862742978675338e-02  -3.5837666177730008e-02  -2.8275998986833924e-02  -2.8316751441950980e-02  -3.5715869270897871e-02  -3.5379537368905034e-02  -3.4388872334182224e-02  -3.9168434985570266e-02  -3.8462464565726100e-02  -2.2814814157435560e-02  -2.2932422819382653e-02  -4.7615989975778650e-02  -4.7892120821373521e-02  -4.3248670446972608e-02  -4.3478879116558296e-02  -4.6735599188823522e-02  -4.6001824025787064e-02  -4.3415111549597298e-02  -4.4044496242069853e-02  -3.5670272578368009e-02  -3.5379442081980059e-02  -4.0872796262542914e-02  -4.0862042502811585e-02  -4.2075411469580708e-02  -4.2845880290485104e-02  -2.7300648035442420e-02  -2.4012143314631033e-02  -2.4265027123784175e-02  -4.8591478740376781e-02  -4.8922515908494786e-02  -2.3865847332454105e-02  -2.3557413839568653e-02  -2.2940106610378954e-02  -2.2632364399171167e-02  -3.6559183493669038e-02  -4.7252640710568644e-02  -4.6715439721923574e-02  -2.2578961899346470e-02  -2.2366204267942509e-02  -3.5892732771230056e-02  -4.3646823292253965e-02  -3.5768386853789483e-02  -4.3502764833156425e-02  -2.2309746669200468e-02  -2.2492650321772285e-02  -4.0736615778647650e-02  -4.0595342713685756e-02  -4.0972132465906544e-02  -4.0961952912046157e-02  -3.4796944423116517e-02  -3.4664832715911156e-02  -4.7845991696581776e-02  -4.7591225457199050e-02  -3.4932203897514363e-02  -4.2550872799227306e-02  -3.4641497153724485e-02  -4.2029901102623911e-02  -3.8233364168583889e-02  -3.8765732893674375e-02  -1.8939594148784149e-02  -2.0292763478322904e-02  -2.3724640821635112e-02  -2.3806348282046814e-02  -2.1755402728355244e-02  -2.1901929685422129e-02  -4.2176854216418383e-02  -4.2196710428071160e-02  -4.1851706776542867e-02  -4.2357112530182983e-02  -4.2045464762335269e-02  -4.1967084312760396e-02  -2.2585027426227994e-02  -2.2228345136169923e-02  -4.5531354060007384e-02  -4.5483176435724311e-02  -5.0621505958138240e-02  -5.0573327541053023e-02  -4.6506388518536779e-02  -4.6688287915263318e-02  -3.4780704929801697e-02  -3.4433099857996849e-02  -4.8711172282606872e-02  -4.8257690493441245e-02  -5.1581425773519533e-02  -5.1808193299688214e-02  -3.5524270286029329e-02  -3.5325209709493204e-02  -3.3989866744469487e-02  -3.3732679761780494e-02  -3.9363154617602078e-02  -3.9178937784026605e-02  -1.6112437604904214e-02  -1.6035639544509900e-02  -3.4308484922450269e-02  -3.4178127267037429e-02  -4.6465178322363854e-02  -4.5086034719753344e-02  -4.7037375207203476e-02  -4.5528423029815739e-02  -5.0778053048633504e-02  -5.0665049587320488e-02  -5.2865654922351152e-02  -5.2773585890918275e-02  -3.2883630130548555e-02  -3.2653213031421296e-02  -3.7946215787997173e-02  -3.7314994894230111e-02  -4.9949851483407748e-02  -4.9596900978599520e-02  -5.3353516458037951e-02  -5.3786619827491763e-02  -4.4695134725599404e-02  -4.5429512046076551e-02  -4.2330420695811700e-02  -4.1783719539831073e-02  -3.3561082199698257e-02  -1.9354692844408088e-02  -1.9365085247146734e-02  -3.5242118219218882e-02  -2.0227820831809473e-02  -2.0454172107013367e-02  -2.0168598647553312e-02  -1.6881796258700846e-02  -1.5103170810244093e-02  -1.5193414028955009e-02  -3.4115373377083071e-02  -3.4341942725761181e-02  -1.5518765630943039e-02  -1.5635886970959890e-02  -1.9900451625545136e-02  -1.9029118816108956e-02  -1.9222214721375565e-02  -3.3384322802736920e-02  -3.3111312443966277e-02  -1.6324420094470295e-02  -1.6409928443980471e-02  -4.0809269520503531e-02  -4.0457050955939933e-02  -4.3057901263006432e-02  -4.2765013052282592e-02  -5.1452345065797253e-02  -5.2085635118263765e-02  -4.1025471541879327e-02  -4.1075258344279837e-02  -4.2622381776010229e-02  -4.8950009469569483e-02  -4.8996389161774727e-02  -4.5705189114042762e-02  -4.5680908561234489e-02  -4.1517629355673651e-02  -3.2434837297358077e-02  -3.2254416808311134e-02  -4.8601156680093870e-02  -4.7887421216837443e-02  -3.4119576725513925e-02  -3.3873549637503872e-02  -1.6104143496619868e-02  -1.6153882768865157e-02  -3.3490577933767939e-02  -3.3319204313797583e-02  -1.6857204693615159e-02  -1.6655474464470785e-02  -3.3498628715538589e-02  -3.3360647246407187e-02  -4.2733569011305247e-02  -1.8835383661353601e-02  -3.8238845656103179e-02  -3.7935450110782185e-02  -3.5501991278416016e-02  -3.5588692027833525e-02  -3.8253316998066771e-02  -3.8259592276955641e-02  -3.9182249715709397e-02  -4.2664067562793083e-02  -3.9623426230280270e-02  -4.3253274427884333e-02  -5.0288752794336589e-02  -5.0072796686656165e-02  -4.6171447838332005e-02  -4.6585106880658242e-02  -4.2892264576810071e-02  -4.2916815870249085e-02  -3.8969142541368969e-02  -3.8708755456446295e-02  -4.6425860043957906e-02  -4.5919687711672465e-02  -4.8825607997104274e-02  -4.8676503686743158e-02  -4.2120560285487371e-02  -4.2596477527626415e-02  -3.4223645746329495e-02  -3.4496851395873621e-02  -3.6297545293900099e-02  -3.6011375267800981e-02  -3.6637129328256274e-02  -3.6869494218016316e-02  -4.5957612484805406e-02  -4.5674280941313712e-02  -3.2818867478095669e-02  -3.2711219569313978e-02  -3.3785151736374169e-02  -3.3601961238781231e-02  -4.2351057120382236e-02  -4.2701961941202467e-02  -4.1992377739172922e-02  -4.1973379935590298e-02  -1.8148896990894031e-02  -1.8022942266424754e-02  -3.6575865822570164e-02  -3.6948470257637755e-02  -3.7581885829569735e-02  -3.7332713508073365e-02  -4.0702887814748498e-02  -4.04893192475